version 3
run Static-0-20231231-12:00:18-35576
attr configname Static
attr datetime 20231231-12:00:18
attr datetimef 20231231-120018
attr experiment Static
attr inifile omnetpp.ini
attr iterationvars ""
attr iterationvarsd ""
attr iterationvarsf ""
attr measurement ""
attr network AODVNetwork
attr processid 35576
attr repetition 0
attr replication #0
attr resultdir results
attr runnumber 0
attr seedset 0
config image-path ../../../../inet-4.3.5/inet-4.3.5/images;../../../../veins-5.2/veins-veins-5.2/images
config description "routing without mobility"
config *.host[*].wlan[*].radio.transmitter.communicationRange 250m
config *.host[0].app[0].destAddr "\"host[1](ipv4)\""
config network AODVNetwork
config num-rngs 3
config **.mobility.rng-0 1
config **.wlan[*].mac.rng-0 2
config **.wlan[*].typename AckingWirelessInterface
config **.wlan[*].bitrate 2Mbps
config **.wlan[*].mac.headerLength 23B
config **.wlan[*].radio.typename UnitDiskRadio
config **.wlan[*].radio.transmitter.headerLength 96b
config **.wlan[*].radio.transmitter.communicationRange 250m
config **.wlan[*].radio.transmitter.interferenceRange 0m
config **.wlan[*].radio.transmitter.detectionRange 0m
config **.wlan[*].radio.receiver.ignoreInterference true
config *.numHosts 20
config **.host[*].mobility.typename StationaryMobility
config **.mobility.constraintAreaMinZ 0m
config **.mobility.constraintAreaMaxZ 0m
config **.mobility.constraintAreaMinX 0m
config **.mobility.constraintAreaMinY 0m
config **.mobility.constraintAreaMaxX 600m
config **.mobility.constraintAreaMaxY 600m
config *.host[0].numApps 1
config *.host[0].app[0].typename PingApp
config *.host[0].app[0].startTime uniform(1s,5s)
config *.host[0].app[0].printPing true
config **.wlan[*].bitrate 2Mbps
config **.hasStatus true

vector 0 AODVNetwork.host[0].wlan[0].radio radioMode:vector ETV
attr interpolationmode sample-hold
attr source radioModeChanged
attr title "Radio mode, vector"
vector 1 AODVNetwork.host[1].wlan[0].radio radioMode:vector ETV
attr interpolationmode sample-hold
attr source radioModeChanged
attr title "Radio mode, vector"
vector 2 AODVNetwork.host[2].wlan[0].radio radioMode:vector ETV
attr interpolationmode sample-hold
attr source radioModeChanged
attr title "Radio mode, vector"
vector 3 AODVNetwork.host[3].wlan[0].radio radioMode:vector ETV
attr interpolationmode sample-hold
attr source radioModeChanged
attr title "Radio mode, vector"
vector 4 AODVNetwork.host[4].wlan[0].radio radioMode:vector ETV
attr interpolationmode sample-hold
attr source radioModeChanged
attr title "Radio mode, vector"
vector 5 AODVNetwork.host[5].wlan[0].radio radioMode:vector ETV
attr interpolationmode sample-hold
attr source radioModeChanged
attr title "Radio mode, vector"
vector 6 AODVNetwork.host[6].wlan[0].radio radioMode:vector ETV
attr interpolationmode sample-hold
attr source radioModeChanged
attr title "Radio mode, vector"
vector 7 AODVNetwork.host[7].wlan[0].radio radioMode:vector ETV
attr interpolationmode sample-hold
attr source radioModeChanged
attr title "Radio mode, vector"
vector 8 AODVNetwork.host[8].wlan[0].radio radioMode:vector ETV
attr interpolationmode sample-hold
attr source radioModeChanged
attr title "Radio mode, vector"
vector 9 AODVNetwork.host[9].wlan[0].radio radioMode:vector ETV
attr interpolationmode sample-hold
attr source radioModeChanged
attr title "Radio mode, vector"
vector 10 AODVNetwork.host[10].wlan[0].radio radioMode:vector ETV
attr interpolationmode sample-hold
attr source radioModeChanged
attr title "Radio mode, vector"
vector 11 AODVNetwork.host[11].wlan[0].radio radioMode:vector ETV
attr interpolationmode sample-hold
attr source radioModeChanged
attr title "Radio mode, vector"
vector 12 AODVNetwork.host[12].wlan[0].radio radioMode:vector ETV
attr interpolationmode sample-hold
attr source radioModeChanged
attr title "Radio mode, vector"
vector 13 AODVNetwork.host[13].wlan[0].radio radioMode:vector ETV
attr interpolationmode sample-hold
attr source radioModeChanged
attr title "Radio mode, vector"
vector 14 AODVNetwork.host[14].wlan[0].radio radioMode:vector ETV
attr interpolationmode sample-hold
attr source radioModeChanged
attr title "Radio mode, vector"
vector 15 AODVNetwork.host[15].wlan[0].radio radioMode:vector ETV
attr interpolationmode sample-hold
attr source radioModeChanged
attr title "Radio mode, vector"
vector 16 AODVNetwork.host[16].wlan[0].radio radioMode:vector ETV
attr interpolationmode sample-hold
attr source radioModeChanged
attr title "Radio mode, vector"
vector 17 AODVNetwork.host[17].wlan[0].radio radioMode:vector ETV
attr interpolationmode sample-hold
attr source radioModeChanged
attr title "Radio mode, vector"
vector 18 AODVNetwork.host[18].wlan[0].radio radioMode:vector ETV
attr interpolationmode sample-hold
attr source radioModeChanged
attr title "Radio mode, vector"
vector 19 AODVNetwork.host[19].wlan[0].radio radioMode:vector ETV
attr interpolationmode sample-hold
attr source radioModeChanged
attr title "Radio mode, vector"
vector 20 AODVNetwork.host[0].wlan[0].radio receptionState:vector ETV
attr interpolationmode sample-hold
attr source receptionStateChanged
attr title "Radio reception state, vector"
vector 21 AODVNetwork.host[0].wlan[0].radio transmissionState:vector ETV
attr interpolationmode sample-hold
attr source transmissionStateChanged
attr title "Radio transmission state, vector"
vector 22 AODVNetwork.host[1].wlan[0].radio receptionState:vector ETV
attr interpolationmode sample-hold
attr source receptionStateChanged
attr title "Radio reception state, vector"
vector 23 AODVNetwork.host[1].wlan[0].radio transmissionState:vector ETV
attr interpolationmode sample-hold
attr source transmissionStateChanged
attr title "Radio transmission state, vector"
vector 24 AODVNetwork.host[2].wlan[0].radio receptionState:vector ETV
attr interpolationmode sample-hold
attr source receptionStateChanged
attr title "Radio reception state, vector"
vector 25 AODVNetwork.host[2].wlan[0].radio transmissionState:vector ETV
attr interpolationmode sample-hold
attr source transmissionStateChanged
attr title "Radio transmission state, vector"
vector 26 AODVNetwork.host[3].wlan[0].radio receptionState:vector ETV
attr interpolationmode sample-hold
attr source receptionStateChanged
attr title "Radio reception state, vector"
vector 27 AODVNetwork.host[3].wlan[0].radio transmissionState:vector ETV
attr interpolationmode sample-hold
attr source transmissionStateChanged
attr title "Radio transmission state, vector"
vector 28 AODVNetwork.host[4].wlan[0].radio receptionState:vector ETV
attr interpolationmode sample-hold
attr source receptionStateChanged
attr title "Radio reception state, vector"
vector 29 AODVNetwork.host[4].wlan[0].radio transmissionState:vector ETV
attr interpolationmode sample-hold
attr source transmissionStateChanged
attr title "Radio transmission state, vector"
vector 30 AODVNetwork.host[5].wlan[0].radio receptionState:vector ETV
attr interpolationmode sample-hold
attr source receptionStateChanged
attr title "Radio reception state, vector"
vector 31 AODVNetwork.host[5].wlan[0].radio transmissionState:vector ETV
attr interpolationmode sample-hold
attr source transmissionStateChanged
attr title "Radio transmission state, vector"
vector 32 AODVNetwork.host[6].wlan[0].radio receptionState:vector ETV
attr interpolationmode sample-hold
attr source receptionStateChanged
attr title "Radio reception state, vector"
vector 33 AODVNetwork.host[6].wlan[0].radio transmissionState:vector ETV
attr interpolationmode sample-hold
attr source transmissionStateChanged
attr title "Radio transmission state, vector"
vector 34 AODVNetwork.host[7].wlan[0].radio receptionState:vector ETV
attr interpolationmode sample-hold
attr source receptionStateChanged
attr title "Radio reception state, vector"
vector 35 AODVNetwork.host[7].wlan[0].radio transmissionState:vector ETV
attr interpolationmode sample-hold
attr source transmissionStateChanged
attr title "Radio transmission state, vector"
vector 36 AODVNetwork.host[8].wlan[0].radio receptionState:vector ETV
attr interpolationmode sample-hold
attr source receptionStateChanged
attr title "Radio reception state, vector"
vector 37 AODVNetwork.host[8].wlan[0].radio transmissionState:vector ETV
attr interpolationmode sample-hold
attr source transmissionStateChanged
attr title "Radio transmission state, vector"
vector 38 AODVNetwork.host[9].wlan[0].radio receptionState:vector ETV
attr interpolationmode sample-hold
attr source receptionStateChanged
attr title "Radio reception state, vector"
vector 39 AODVNetwork.host[9].wlan[0].radio transmissionState:vector ETV
attr interpolationmode sample-hold
attr source transmissionStateChanged
attr title "Radio transmission state, vector"
vector 40 AODVNetwork.host[10].wlan[0].radio receptionState:vector ETV
attr interpolationmode sample-hold
attr source receptionStateChanged
attr title "Radio reception state, vector"
vector 41 AODVNetwork.host[10].wlan[0].radio transmissionState:vector ETV
attr interpolationmode sample-hold
attr source transmissionStateChanged
attr title "Radio transmission state, vector"
vector 42 AODVNetwork.host[11].wlan[0].radio receptionState:vector ETV
attr interpolationmode sample-hold
attr source receptionStateChanged
attr title "Radio reception state, vector"
vector 43 AODVNetwork.host[11].wlan[0].radio transmissionState:vector ETV
attr interpolationmode sample-hold
attr source transmissionStateChanged
attr title "Radio transmission state, vector"
vector 44 AODVNetwork.host[12].wlan[0].radio receptionState:vector ETV
attr interpolationmode sample-hold
attr source receptionStateChanged
attr title "Radio reception state, vector"
vector 45 AODVNetwork.host[12].wlan[0].radio transmissionState:vector ETV
attr interpolationmode sample-hold
attr source transmissionStateChanged
attr title "Radio transmission state, vector"
vector 46 AODVNetwork.host[13].wlan[0].radio receptionState:vector ETV
attr interpolationmode sample-hold
attr source receptionStateChanged
attr title "Radio reception state, vector"
vector 47 AODVNetwork.host[13].wlan[0].radio transmissionState:vector ETV
attr interpolationmode sample-hold
attr source transmissionStateChanged
attr title "Radio transmission state, vector"
vector 48 AODVNetwork.host[14].wlan[0].radio receptionState:vector ETV
attr interpolationmode sample-hold
attr source receptionStateChanged
attr title "Radio reception state, vector"
vector 49 AODVNetwork.host[14].wlan[0].radio transmissionState:vector ETV
attr interpolationmode sample-hold
attr source transmissionStateChanged
attr title "Radio transmission state, vector"
vector 50 AODVNetwork.host[15].wlan[0].radio receptionState:vector ETV
attr interpolationmode sample-hold
attr source receptionStateChanged
attr title "Radio reception state, vector"
vector 51 AODVNetwork.host[15].wlan[0].radio transmissionState:vector ETV
attr interpolationmode sample-hold
attr source transmissionStateChanged
attr title "Radio transmission state, vector"
vector 52 AODVNetwork.host[16].wlan[0].radio receptionState:vector ETV
attr interpolationmode sample-hold
attr source receptionStateChanged
attr title "Radio reception state, vector"
vector 53 AODVNetwork.host[16].wlan[0].radio transmissionState:vector ETV
attr interpolationmode sample-hold
attr source transmissionStateChanged
attr title "Radio transmission state, vector"
vector 54 AODVNetwork.host[17].wlan[0].radio receptionState:vector ETV
attr interpolationmode sample-hold
attr source receptionStateChanged
attr title "Radio reception state, vector"
vector 55 AODVNetwork.host[17].wlan[0].radio transmissionState:vector ETV
attr interpolationmode sample-hold
attr source transmissionStateChanged
attr title "Radio transmission state, vector"
vector 56 AODVNetwork.host[18].wlan[0].radio receptionState:vector ETV
attr interpolationmode sample-hold
attr source receptionStateChanged
attr title "Radio reception state, vector"
vector 57 AODVNetwork.host[18].wlan[0].radio transmissionState:vector ETV
attr interpolationmode sample-hold
attr source transmissionStateChanged
attr title "Radio transmission state, vector"
vector 58 AODVNetwork.host[19].wlan[0].radio receptionState:vector ETV
attr interpolationmode sample-hold
attr source receptionStateChanged
attr title "Radio reception state, vector"
vector 59 AODVNetwork.host[19].wlan[0].radio transmissionState:vector ETV
attr interpolationmode sample-hold
attr source transmissionStateChanged
attr title "Radio transmission state, vector"
vector 60 AODVNetwork.host[0].app[0] pingTxSeq:vector ETV
attr interpolationmode none
attr title "ping tx seq, vector"
vector 61 AODVNetwork.host[0].udp packetSent:vector(packetBytes) ETV
attr interpolationmode none
attr source packetSent
attr title "packets sent, vector(packetBytes)"
vector 62 AODVNetwork.host[0].wlan[0].mac rcvdPkFromHl:vector(packetBytes) ETV
attr interpolationmode none
attr source packetReceivedFromUpper
attr title "packets received from higher layer, vector(packetBytes)"
vector 63 AODVNetwork.host[0].wlan[0].mac.queue packetPushed:vector(packetBytes) ETV
attr interpolationmode none
attr title "packet pushed, vector(packetBytes)"
vector 64 AODVNetwork.host[0].wlan[0].mac.queue queueLength:vector ETV
attr autoWarmupFilter false
attr interpolationmode sample-hold
attr source "warmup(count(packetPushed) - count(packetPulled) - count(packetRemoved) - count(packetDropped))"
attr title "queue length, vector"
attr type int
vector 65 AODVNetwork.host[0].wlan[0].mac.queue packetPulled:vector(packetBytes) ETV
attr interpolationmode none
attr title "packet pulled, vector(packetBytes)"
vector 66 AODVNetwork.host[0].wlan[0].mac.queue queueingTime:vector ETV
attr interpolationmode none
attr source queueingTime(packetPulled)
attr title "queueing times, vector"
attr unit s
vector 67 AODVNetwork.host[0].wlan[0].mac sentDownPk:vector(packetBytes) ETV
attr interpolationmode none
attr source packetSentToLower
attr title "packets sent to lower layer, vector(packetBytes)"
vector 68 AODVNetwork.host[19].wlan[0].mac rcvdPkFromLl:vector(packetBytes) ETV
attr interpolationmode none
attr source packetReceivedFromLower
attr title "packets received from lower layer, vector(packetBytes)"
vector 69 AODVNetwork.host[19].wlan[0].mac passedUpPk:vector(packetBytes) ETV
attr interpolationmode none
attr source packetSentToUpper
attr title "packets passed to higher layer, vector(packetBytes)"
vector 70 AODVNetwork.host[19].udp packetReceived:vector(packetBytes) ETV
attr interpolationmode none
attr source packetReceived
attr title "packets received, vector(packetBytes)"
vector 71 AODVNetwork.host[19].udp passedUpPk:vector(count) ETV
attr interpolationmode none
attr source packetSentToUpper
attr title "packets passed up, vector(count)"
vector 72 AODVNetwork.host[8].wlan[0].mac rcvdPkFromLl:vector(packetBytes) ETV
attr interpolationmode none
attr source packetReceivedFromLower
attr title "packets received from lower layer, vector(packetBytes)"
vector 73 AODVNetwork.host[8].wlan[0].mac passedUpPk:vector(packetBytes) ETV
attr interpolationmode none
attr source packetSentToUpper
attr title "packets passed to higher layer, vector(packetBytes)"
vector 74 AODVNetwork.host[8].udp packetReceived:vector(packetBytes) ETV
attr interpolationmode none
attr source packetReceived
attr title "packets received, vector(packetBytes)"
vector 75 AODVNetwork.host[8].udp passedUpPk:vector(count) ETV
attr interpolationmode none
attr source packetSentToUpper
attr title "packets passed up, vector(count)"
vector 76 AODVNetwork.host[11].wlan[0].mac rcvdPkFromLl:vector(packetBytes) ETV
attr interpolationmode none
attr source packetReceivedFromLower
attr title "packets received from lower layer, vector(packetBytes)"
vector 77 AODVNetwork.host[11].wlan[0].mac passedUpPk:vector(packetBytes) ETV
attr interpolationmode none
attr source packetSentToUpper
attr title "packets passed to higher layer, vector(packetBytes)"
vector 78 AODVNetwork.host[11].udp packetReceived:vector(packetBytes) ETV
attr interpolationmode none
attr source packetReceived
attr title "packets received, vector(packetBytes)"
vector 79 AODVNetwork.host[11].udp passedUpPk:vector(count) ETV
attr interpolationmode none
attr source packetSentToUpper
attr title "packets passed up, vector(count)"
vector 80 AODVNetwork.host[3].wlan[0].mac rcvdPkFromLl:vector(packetBytes) ETV
attr interpolationmode none
attr source packetReceivedFromLower
attr title "packets received from lower layer, vector(packetBytes)"
vector 81 AODVNetwork.host[3].wlan[0].mac passedUpPk:vector(packetBytes) ETV
attr interpolationmode none
attr source packetSentToUpper
attr title "packets passed to higher layer, vector(packetBytes)"
vector 82 AODVNetwork.host[3].udp packetReceived:vector(packetBytes) ETV
attr interpolationmode none
attr source packetReceived
attr title "packets received, vector(packetBytes)"
vector 83 AODVNetwork.host[3].udp passedUpPk:vector(count) ETV
attr interpolationmode none
attr source packetSentToUpper
attr title "packets passed up, vector(count)"
vector 84 AODVNetwork.host[18].wlan[0].mac rcvdPkFromLl:vector(packetBytes) ETV
attr interpolationmode none
attr source packetReceivedFromLower
attr title "packets received from lower layer, vector(packetBytes)"
vector 85 AODVNetwork.host[18].wlan[0].mac passedUpPk:vector(packetBytes) ETV
attr interpolationmode none
attr source packetSentToUpper
attr title "packets passed to higher layer, vector(packetBytes)"
vector 86 AODVNetwork.host[18].udp packetReceived:vector(packetBytes) ETV
attr interpolationmode none
attr source packetReceived
attr title "packets received, vector(packetBytes)"
vector 87 AODVNetwork.host[18].udp passedUpPk:vector(count) ETV
attr interpolationmode none
attr source packetSentToUpper
attr title "packets passed up, vector(count)"
vector 88 AODVNetwork.host[10].wlan[0].mac rcvdPkFromLl:vector(packetBytes) ETV
attr interpolationmode none
attr source packetReceivedFromLower
attr title "packets received from lower layer, vector(packetBytes)"
vector 89 AODVNetwork.host[10].wlan[0].mac passedUpPk:vector(packetBytes) ETV
attr interpolationmode none
attr source packetSentToUpper
attr title "packets passed to higher layer, vector(packetBytes)"
vector 90 AODVNetwork.host[10].udp packetReceived:vector(packetBytes) ETV
attr interpolationmode none
attr source packetReceived
attr title "packets received, vector(packetBytes)"
vector 91 AODVNetwork.host[10].udp passedUpPk:vector(count) ETV
attr interpolationmode none
attr source packetSentToUpper
attr title "packets passed up, vector(count)"
vector 92 AODVNetwork.host[16].wlan[0].mac rcvdPkFromLl:vector(packetBytes) ETV
attr interpolationmode none
attr source packetReceivedFromLower
attr title "packets received from lower layer, vector(packetBytes)"
vector 93 AODVNetwork.host[16].wlan[0].mac passedUpPk:vector(packetBytes) ETV
attr interpolationmode none
attr source packetSentToUpper
attr title "packets passed to higher layer, vector(packetBytes)"
vector 94 AODVNetwork.host[16].udp packetReceived:vector(packetBytes) ETV
attr interpolationmode none
attr source packetReceived
attr title "packets received, vector(packetBytes)"
vector 95 AODVNetwork.host[16].udp passedUpPk:vector(count) ETV
attr interpolationmode none
attr source packetSentToUpper
attr title "packets passed up, vector(count)"
vector 96 AODVNetwork.host[16].udp packetSent:vector(packetBytes) ETV
attr interpolationmode none
attr source packetSent
attr title "packets sent, vector(packetBytes)"
vector 97 AODVNetwork.host[16].wlan[0].mac rcvdPkFromHl:vector(packetBytes) ETV
attr interpolationmode none
attr source packetReceivedFromUpper
attr title "packets received from higher layer, vector(packetBytes)"
vector 98 AODVNetwork.host[16].wlan[0].mac.queue packetPushed:vector(packetBytes) ETV
attr interpolationmode none
attr title "packet pushed, vector(packetBytes)"
vector 99 AODVNetwork.host[16].wlan[0].mac.queue queueLength:vector ETV
attr autoWarmupFilter false
attr interpolationmode sample-hold
attr source "warmup(count(packetPushed) - count(packetPulled) - count(packetRemoved) - count(packetDropped))"
attr title "queue length, vector"
attr type int
vector 100 AODVNetwork.host[16].wlan[0].mac.queue packetPulled:vector(packetBytes) ETV
attr interpolationmode none
attr title "packet pulled, vector(packetBytes)"
vector 101 AODVNetwork.host[16].wlan[0].mac.queue queueingTime:vector ETV
attr interpolationmode none
attr source queueingTime(packetPulled)
attr title "queueing times, vector"
attr unit s
vector 102 AODVNetwork.host[16].wlan[0].mac sentDownPk:vector(packetBytes) ETV
attr interpolationmode none
attr source packetSentToLower
attr title "packets sent to lower layer, vector(packetBytes)"
vector 103 AODVNetwork.host[17].wlan[0].mac rcvdPkFromLl:vector(packetBytes) ETV
attr interpolationmode none
attr source packetReceivedFromLower
attr title "packets received from lower layer, vector(packetBytes)"
vector 104 AODVNetwork.host[17].wlan[0].mac passedUpPk:vector(packetBytes) ETV
attr interpolationmode none
attr source packetSentToUpper
attr title "packets passed to higher layer, vector(packetBytes)"
vector 105 AODVNetwork.host[17].udp packetReceived:vector(packetBytes) ETV
attr interpolationmode none
attr source packetReceived
attr title "packets received, vector(packetBytes)"
vector 106 AODVNetwork.host[17].udp passedUpPk:vector(count) ETV
attr interpolationmode none
attr source packetSentToUpper
attr title "packets passed up, vector(count)"
vector 107 AODVNetwork.host[7].wlan[0].mac rcvdPkFromLl:vector(packetBytes) ETV
attr interpolationmode none
attr source packetReceivedFromLower
attr title "packets received from lower layer, vector(packetBytes)"
vector 108 AODVNetwork.host[7].wlan[0].mac passedUpPk:vector(packetBytes) ETV
attr interpolationmode none
attr source packetSentToUpper
attr title "packets passed to higher layer, vector(packetBytes)"
vector 109 AODVNetwork.host[7].udp packetReceived:vector(packetBytes) ETV
attr interpolationmode none
attr source packetReceived
attr title "packets received, vector(packetBytes)"
vector 110 AODVNetwork.host[7].udp passedUpPk:vector(count) ETV
attr interpolationmode none
attr source packetSentToUpper
attr title "packets passed up, vector(count)"
vector 111 AODVNetwork.host[6].wlan[0].mac rcvdPkFromLl:vector(packetBytes) ETV
attr interpolationmode none
attr source packetReceivedFromLower
attr title "packets received from lower layer, vector(packetBytes)"
vector 112 AODVNetwork.host[6].wlan[0].mac passedUpPk:vector(packetBytes) ETV
attr interpolationmode none
attr source packetSentToUpper
attr title "packets passed to higher layer, vector(packetBytes)"
vector 113 AODVNetwork.host[6].udp packetReceived:vector(packetBytes) ETV
attr interpolationmode none
attr source packetReceived
attr title "packets received, vector(packetBytes)"
vector 114 AODVNetwork.host[6].udp passedUpPk:vector(count) ETV
attr interpolationmode none
attr source packetSentToUpper
attr title "packets passed up, vector(count)"
vector 115 AODVNetwork.host[4].wlan[0].mac rcvdPkFromLl:vector(packetBytes) ETV
attr interpolationmode none
attr source packetReceivedFromLower
attr title "packets received from lower layer, vector(packetBytes)"
vector 116 AODVNetwork.host[4].wlan[0].mac passedUpPk:vector(packetBytes) ETV
attr interpolationmode none
attr source packetSentToUpper
attr title "packets passed to higher layer, vector(packetBytes)"
vector 117 AODVNetwork.host[4].udp packetReceived:vector(packetBytes) ETV
attr interpolationmode none
attr source packetReceived
attr title "packets received, vector(packetBytes)"
vector 118 AODVNetwork.host[4].udp passedUpPk:vector(count) ETV
attr interpolationmode none
attr source packetSentToUpper
attr title "packets passed up, vector(count)"
vector 119 AODVNetwork.host[14].wlan[0].mac rcvdPkFromLl:vector(packetBytes) ETV
attr interpolationmode none
attr source packetReceivedFromLower
attr title "packets received from lower layer, vector(packetBytes)"
vector 120 AODVNetwork.host[14].wlan[0].mac passedUpPk:vector(packetBytes) ETV
attr interpolationmode none
attr source packetSentToUpper
attr title "packets passed to higher layer, vector(packetBytes)"
vector 121 AODVNetwork.host[14].udp packetReceived:vector(packetBytes) ETV
attr interpolationmode none
attr source packetReceived
attr title "packets received, vector(packetBytes)"
vector 122 AODVNetwork.host[14].udp passedUpPk:vector(count) ETV
attr interpolationmode none
attr source packetSentToUpper
attr title "packets passed up, vector(count)"
vector 123 AODVNetwork.host[2].wlan[0].mac rcvdPkFromLl:vector(packetBytes) ETV
attr interpolationmode none
attr source packetReceivedFromLower
attr title "packets received from lower layer, vector(packetBytes)"
vector 124 AODVNetwork.host[2].wlan[0].mac passedUpPk:vector(packetBytes) ETV
attr interpolationmode none
attr source packetSentToUpper
attr title "packets passed to higher layer, vector(packetBytes)"
vector 125 AODVNetwork.host[2].udp packetReceived:vector(packetBytes) ETV
attr interpolationmode none
attr source packetReceived
attr title "packets received, vector(packetBytes)"
vector 126 AODVNetwork.host[2].udp passedUpPk:vector(count) ETV
attr interpolationmode none
attr source packetSentToUpper
attr title "packets passed up, vector(count)"
vector 127 AODVNetwork.host[0].wlan[0].mac rcvdPkFromLl:vector(packetBytes) ETV
attr interpolationmode none
attr source packetReceivedFromLower
attr title "packets received from lower layer, vector(packetBytes)"
vector 128 AODVNetwork.host[0].wlan[0].mac passedUpPk:vector(packetBytes) ETV
attr interpolationmode none
attr source packetSentToUpper
attr title "packets passed to higher layer, vector(packetBytes)"
vector 129 AODVNetwork.host[0].udp packetReceived:vector(packetBytes) ETV
attr interpolationmode none
attr source packetReceived
attr title "packets received, vector(packetBytes)"
vector 130 AODVNetwork.host[0].udp passedUpPk:vector(count) ETV
attr interpolationmode none
attr source packetSentToUpper
attr title "packets passed up, vector(count)"
vector 131 AODVNetwork.host[1].wlan[0].mac rcvdPkFromLl:vector(packetBytes) ETV
attr interpolationmode none
attr source packetReceivedFromLower
attr title "packets received from lower layer, vector(packetBytes)"
vector 132 AODVNetwork.host[1].wlan[0].mac passedUpPk:vector(packetBytes) ETV
attr interpolationmode none
attr source packetSentToUpper
attr title "packets passed to higher layer, vector(packetBytes)"
vector 133 AODVNetwork.host[1].udp packetReceived:vector(packetBytes) ETV
attr interpolationmode none
attr source packetReceived
attr title "packets received, vector(packetBytes)"
vector 134 AODVNetwork.host[1].udp passedUpPk:vector(count) ETV
attr interpolationmode none
attr source packetSentToUpper
attr title "packets passed up, vector(count)"
vector 135 AODVNetwork.host[1].udp packetSent:vector(packetBytes) ETV
attr interpolationmode none
attr source packetSent
attr title "packets sent, vector(packetBytes)"
vector 136 AODVNetwork.host[1].ipv4.arp arpRequestSent:vector(packetBytes) ETV
attr source arpRequestSent
attr title "ARP request sent, vector(packetBytes)"
vector 137 AODVNetwork.host[1].wlan[0].mac rcvdPkFromHl:vector(packetBytes) ETV
attr interpolationmode none
attr source packetReceivedFromUpper
attr title "packets received from higher layer, vector(packetBytes)"
vector 138 AODVNetwork.host[1].wlan[0].mac.queue packetPushed:vector(packetBytes) ETV
attr interpolationmode none
attr title "packet pushed, vector(packetBytes)"
vector 139 AODVNetwork.host[1].wlan[0].mac.queue queueLength:vector ETV
attr autoWarmupFilter false
attr interpolationmode sample-hold
attr source "warmup(count(packetPushed) - count(packetPulled) - count(packetRemoved) - count(packetDropped))"
attr title "queue length, vector"
attr type int
vector 140 AODVNetwork.host[1].wlan[0].mac.queue packetPulled:vector(packetBytes) ETV
attr interpolationmode none
attr title "packet pulled, vector(packetBytes)"
vector 141 AODVNetwork.host[1].wlan[0].mac.queue queueingTime:vector ETV
attr interpolationmode none
attr source queueingTime(packetPulled)
attr title "queueing times, vector"
attr unit s
vector 142 AODVNetwork.host[1].wlan[0].mac sentDownPk:vector(packetBytes) ETV
attr interpolationmode none
attr source packetSentToLower
attr title "packets sent to lower layer, vector(packetBytes)"
vector 143 AODVNetwork.host[16].ipv4.arp arpReplySent:vector(packetBytes) ETV
attr source arpReplySent
attr title "ARP replies sent, vector(packetBytes)"
vector 144 AODVNetwork.host[18].udp packetSent:vector(packetBytes) ETV
attr interpolationmode none
attr source packetSent
attr title "packets sent, vector(packetBytes)"
vector 145 AODVNetwork.host[18].wlan[0].mac rcvdPkFromHl:vector(packetBytes) ETV
attr interpolationmode none
attr source packetReceivedFromUpper
attr title "packets received from higher layer, vector(packetBytes)"
vector 146 AODVNetwork.host[18].wlan[0].mac.queue packetPushed:vector(packetBytes) ETV
attr interpolationmode none
attr title "packet pushed, vector(packetBytes)"
vector 147 AODVNetwork.host[18].wlan[0].mac.queue queueLength:vector ETV
attr autoWarmupFilter false
attr interpolationmode sample-hold
attr source "warmup(count(packetPushed) - count(packetPulled) - count(packetRemoved) - count(packetDropped))"
attr title "queue length, vector"
attr type int
vector 148 AODVNetwork.host[18].wlan[0].mac.queue packetPulled:vector(packetBytes) ETV
attr interpolationmode none
attr title "packet pulled, vector(packetBytes)"
vector 149 AODVNetwork.host[18].wlan[0].mac.queue queueingTime:vector ETV
attr interpolationmode none
attr source queueingTime(packetPulled)
attr title "queueing times, vector"
attr unit s
vector 150 AODVNetwork.host[18].wlan[0].mac sentDownPk:vector(packetBytes) ETV
attr interpolationmode none
attr source packetSentToLower
attr title "packets sent to lower layer, vector(packetBytes)"
0	0	0	0
0	0	0	0
0	0	0	4
1	0	0	0
1	0	0	0
1	0	0	4
2	0	0	0
2	0	0	0
2	0	0	4
3	0	0	0
3	0	0	0
3	0	0	4
4	0	0	0
4	0	0	0
4	0	0	4
5	0	0	0
5	0	0	0
5	0	0	4