version 3
run General-0-20231128-19:06:05-45632
attr configname General
attr datetime 20231128-19:06:05
attr datetimef 20231128-190605
attr experiment General
attr inifile omnetpp.ini
attr iterationvars ""
attr iterationvarsd ""
attr iterationvarsf ""
attr measurement ""
attr network WirelessNetwork
attr processid 45632
attr repetition 0
attr replication #0
attr resultdir results
attr runnumber 0
attr seedset 0
config image-path ../../../../inet-4.3.5/inet-4.3.5/images;../../../../veins-5.2/veins-veins-5.2/images
config description "Simple sim where two host comunicate wirelessly"
config network WirelessNetwork
config sim-time-limit 200s
config *.host*.ipv4.arp.typename GlobalArp
config *.hostA.numApps 1
config *.hostA.app[0].typename UdpBasicApp
config *.hostA.app[0].destAddresses "\"hostB\""
config *.hostA.app[0].destPort 5000
config *.hostA.app[0].messageLength 1000B
config *.hostA.app[0].sendInterval exponential(12ms)
config *.hostA.app[0].packetName "\"UDPData\""
config *.hostB.numApps 1
config *.hostB.app[0].typename UdpSink
config *.hostB.app[0].localPort 5000
config *.host*.wlan[0].typename AckingWirelessInterface
config *.host*.wlan[0].mac.useAck false
config *.host*.wlan[0].mac.fullDuplex false
config *.host*.wlan[0].radio.transmitter.communicationRange 500m
config *.host*.wlan[0].radio.receiver.ignoreInterference true
config *.host*.wlan[0].mac.headerLength 23B
config *.host*.**.bitrate 1Mbps
config **.radio.displayCommunicationRange true
config *.visualizer.mediumVisualizer.displaySignals true
config *.visualizer.physicalLinkVisualizer.displayLinks true
config *.visualizer.physicalLinkVisualizer.packetFilter "\"UDPData\""
config *.visualizer.mobilityVisualizer.displayVelocities true
config *.visualizer.mobilityVisualizer.displayMovementTrails true
config *.hostA.mobility.typename LinearMobility
config *.hostA.mobility.speed 12mps
config *.hostA.mobility.initialMovementHeading 200deg

vector 0 WirelessNetwork.hostA.wlan[0].radio radioMode:vector ETV
attr interpolationmode sample-hold
attr source radioModeChanged
attr title "Radio mode, vector"
vector 1 WirelessNetwork.hostB.wlan[0].radio radioMode:vector ETV
attr interpolationmode sample-hold
attr source radioModeChanged
attr title "Radio mode, vector"
vector 2 WirelessNetwork.hostA.wlan[0].radio receptionState:vector ETV
attr interpolationmode sample-hold
attr source receptionStateChanged
attr title "Radio reception state, vector"
vector 3 WirelessNetwork.hostB.wlan[0].radio receptionState:vector ETV
attr interpolationmode sample-hold
attr source receptionStateChanged
attr title "Radio reception state, vector"
vector 4 WirelessNetwork.hostA.app[0] packetSent:vector(packetBytes) ETV
attr interpolationmode none
attr source packetSent
attr title "packets sent, vector(packetBytes)"
vector 5 WirelessNetwork.hostA.udp packetSent:vector(packetBytes) ETV
attr interpolationmode none
attr source packetSent
attr title "packets sent, vector(packetBytes)"
vector 6 WirelessNetwork.hostA.wlan[0].mac rcvdPkFromHl:vector(packetBytes) ETV
attr interpolationmode none
attr source packetReceivedFromUpper
attr title "packets received from higher layer, vector(packetBytes)"
vector 7 WirelessNetwork.hostA.wlan[0].mac.queue packetPushed:vector(packetBytes) ETV
attr interpolationmode none
attr title "packet pushed, vector(packetBytes)"
vector 8 WirelessNetwork.hostA.wlan[0].mac.queue queueLength:vector ETV
attr autoWarmupFilter false
attr interpolationmode sample-hold
attr source "warmup(count(packetPushed) - count(packetPulled) - count(packetRemoved) - count(packetDropped))"
attr title "queue length, vector"
attr type int
vector 9 WirelessNetwork.hostA.wlan[0].mac.queue packetPulled:vector(packetBytes) ETV
attr interpolationmode none
attr title "packet pulled, vector(packetBytes)"
vector 10 WirelessNetwork.hostA.wlan[0].mac.queue queueingTime:vector ETV
attr interpolationmode none
attr source queueingTime(packetPulled)
attr title "queueing times, vector"
attr unit s
vector 11 WirelessNetwork.hostA.wlan[0].radio transmissionState:vector ETV
attr interpolationmode sample-hold
attr source transmissionStateChanged
attr title "Radio transmission state, vector"
vector 12 WirelessNetwork.hostA.wlan[0].mac sentDownPk:vector(packetBytes) ETV
attr interpolationmode none
attr source packetSentToLower
attr title "packets sent to lower layer, vector(packetBytes)"
vector 13 WirelessNetwork.hostB.wlan[0].mac rcvdPkFromLl:vector(packetBytes) ETV
attr interpolationmode none
attr source packetReceivedFromLower
attr title "packets received from lower layer, vector(packetBytes)"
vector 14 WirelessNetwork.hostB.wlan[0].mac passedUpPk:vector(packetBytes) ETV
attr interpolationmode none
attr source packetSentToUpper
attr title "packets passed to higher layer, vector(packetBytes)"
vector 15 WirelessNetwork.hostB.udp packetReceived:vector(packetBytes) ETV
attr interpolationmode none
attr source packetReceived
attr title "packets received, vector(packetBytes)"
vector 16 WirelessNetwork.hostB.udp passedUpPk:vector(count) ETV
attr interpolationmode none
attr source packetSentToUpper
attr title "packets passed up, vector(count)"
vector 17 WirelessNetwork.hostB.app[0] packetReceived:vector(packetBytes) ETV
attr interpolationmode none
attr source packetReceived
attr title "packets received, vector(packetBytes)"
vector 18 WirelessNetwork.hostB.app[0] endToEndDelay:vector ETV
attr interpolationmode none
attr source dataAge(packetReceived)
attr title "end-to-end delay, vector"
attr unit s
vector 19 WirelessNetwork.hostB.app[0] rcvdPkSeqNo:vector ETV
attr interpolationmode none
attr source appPkSeqNo(packetReceived)
attr title "received packet sequence number, vector"
vector 20 WirelessNetwork.hostB.app[0] throughput:vector ETV
attr source throughput(packetReceived)
attr title "throughput, vector"
attr unit bps
0	0	0	0
0	0	0	0
0	0	0	2
0	8	0.022315250545	3
0	15	0.030819250545	2
0	15	0.030819250545	3
0	23	0.039323250545	2
0	33	0.041385743993	3
0	41	0.049889743993	2
0	41	0.049889743993	3
0	49	0.058393743993	2
0	60	0.07497426742	3
0	63	0.08347826742	2
0	74	0.114753214779	3
0	81	0.123257214779	2
0	81	0.123257214779	3
0	89	0.131761214779	2
0	99	0.139383193449	3
0	103	0.147887193449	2
0	112	0.148415282809	3
0	115	0.156919282809	2
0	125	0.158488477044	3
0	129	0.166992477044	2
0	139	0.189667526074	3
0	154	0.198171526074	2
0	154	0.198171526074	3
0	163	0.206675526074	2
0	163	0.206675526074	3
0	176	0.215179526074	2
0	176	0.215179526074	3
0	185	0.223683526074	2
0	185	0.223683526074	3
0	198	0.232187526074	2
0	198	0.232187526074	3
0	207	0.240691526074	2
0	218	0.255893823874	3
0	221	0.264397823874	2
0	232	0.302036486304	3
0	235	0.310540486304	2
0	245	0.321299360989	3
0	252	0.329803360989	2
0	252	0.329803360989	3
0	260	0.338307360989	2
0	270	0.346924946193	3
0	278	0.355428946193	2
0	278	0.355428946193	3
0	294	0.363932946193	2
0	294	0.363932946193	3
0	303	0.372436946193	2
0	303	0.372436946193	3
0	312	0.380940946193	2
0	323	0.3972824235	3
0	327	0.4057864235	2
0	336	0.406136351001	3
0	343	0.414640351001	2
0	343	0.414640351001	3
0	356	0.423144351001	2
0	356	0.423144351001	3
0	365	0.431648351001	2
0	375	0.434109561779	3
0	383	0.442613561779	2
0	383	0.442613561779	3
0	391	0.451117561779	2
0	400	0.451502567324	3
0	408	0.460006567324	2
0	408	0.460006567324	3
0	421	0.468510567324	2
0	421	0.468510567324	3
0	434	0.477014567324	2
0	434	0.477014567324	3
0	443	0.485518567324	2
0	452	0.486145297277	3
0	456	0.494649297277	2
0	468	0.520680277532	3
0	471	0.529184277532	2
0	480	0.534421944988	3
0	488	0.542925944988	2
0	488	0.542925944988	3
0	500	0.551429944988	2
0	500	0.551429944988	3
0	509	0.559933944988	2
0	518	0.561015849403	3
0	526	0.569519849403	2
0	526	0.569519849403	3
0	539	0.578023849403	2
0	539	0.578023849403	3
0	548	0.586527849403	2
0	558	0.588275351848	3
0	570	0.596779351848	2
0	570	0.596779351848	3
0	587	0.605283351848	2
0	587	0.605283351848	3
0	600	0.613787351848	2
0	600	0.613787351848	3
0	613	0.622291351848	2
0	613	0.622291351848	3
0	622	0.630795351848	2
0	622	0.630795351848	3
0	631	0.639299351848	2
0	631	0.639299351848	3
0	640	0.647803351848	2
0	651	0.673253932282	3
0	666	0.681757932282	2
0	666	0.681757932282	3
0	674	0.690261932282	2
0	674	0.690261932282	3
0	691	0.698765932282	2
0	691	0.698765932282	3
0	709	0.707269932282	2
0	709	0.707269932282	3
0	726	0.715773932282	2
0	726	0.715773932282	3
0	739	0.724277932282	2
0	739	0.724277932282	3
0	756	0.732781932282	2
0	756	0.732781932282	3
0	769	0.741285932282	2
0	769	0.741285932282	3
0	778	0.749789932282	2
0	778	0.749789932282	3
0	795	0.758293932282	2
0	795	0.758293932282	3
0	804	0.766797932282	2
0	804	0.766797932282	3
0	813	0.775301932282	2
0	813	0.775301932282	3
0	830	0.783805932282	2
0	830	0.783805932282	3
0	839	0.792309932282	2
0	839	0.792309932282	3
0	849	0.800813932282	2
0	849	0.800813932282	3
0	858	0.809317932282	2
0	858	0.809317932282	3
0	867	0.817821932282	2
0	867	0.817821932282	3
0	880	0.826325932282	2
0	880	0.826325932282	3
0	893	0.834829932282	2
0	893	0.834829932282	3
0	902	0.843333932282	2
0	913	0.875445285936	3
0	916	0.883949285936	2
0	925	0.886587027899	3
0	929	0.895091027899	2
0	939	0.902717971165	3
0	955	0.911221971165	2
0	955	0.911221971165	3
0	975	0.919725971165	2
0	975	0.919725971165	3
0	992	0.928229971165	2
0	992	0.928229971165	3
0	1001	0.936733971165	2
0	1001	0.936733971165	3
0	1014	0.945237971165	2
0	1014	0.945237971165	3
0	1027	0.953741971165	2
0	1027	0.953741971165	3
0	1040	0.962245971165	2
0	1040	0.962245971165	3
0	1057	0.970749971165	2
0	1057	0.970749971165	3
0	1070	0.979253971165	2
0	1070	0.979253971165	3
0	1079	0.987757971165	2
0	1079	0.987757971165	3
0	1088	0.996261971165	2
0	1088	0.996261971165	3
0	1098	1.004765971165	2
0	1098	1.004765971165	3
0	1115	1.013269971165	2
0	1115	1.013269971165	3
0	1124	1.021773971165	2
0	1124	1.021773971165	3
0	1141	1.030277971165	2
0	1141	1.030277971165	3
0	1150	1.038781971165	2
0	1150	1.038781971165	3
0	1167	1.047285971165	2
0	1167	1.047285971165	3
0	1180	1.055789971165	2
0	1180	1.055789971165	3
0	1197	1.064293971165	2
0	1197	1.064293971165	3
0	1206	1.072797971165	2
0	1206	1.072797971165	3
0	1223	1.081301971165	2
0	1223	1.081301971165	3
0	1232	1.089805971165	2
0	1232	1.089805971165	3
0	1249	1.098309971165	2
0	1249	1.098309971165	3
0	1259	1.106813971165	2
0	1259	1.106813971165	3
0	1272	1.115317971165	2
0	1272	1.115317971165	3
0	1281	1.123821971165	2
0	1281	1.123821971165	3
0	1290	1.132325971165	2
0	1290	1.132325971165	3
0	1299	1.140829971165	2
0	1299	1.140829971165	3
0	1308	1.149333971165	2
0	1318	1.152161667644	3
0	1326	1.160665667644	2
0	1326	1.160665667644	3
0	1338	1.169169667644	2
0	1338	1.169169667644	3
0	1351	1.177673667644	2
0	1351	1.177673667644	3
0	1360	1.186177667644	2
0	1369	1.186844375116	3
0	1377	1.195348375116	2
0	1377	1.195348375116	3
0	1387	1.203852375116	2
0	1398	1.226500794914	3
0	1405	1.235004794914	2
0	1405	1.235004794914	3
0	1413	1.243508794914	2
0	1424	1.256093801801	3
0	1427	1.264597801801	2
0	1436	1.270520664608	3
0	1444	1.279024664608	2
0	1444	1.279024664608	3
0	1452	1.287528664608	2
0	1462	1.294927972662	3
0	1471	1.303431972662	2
0	1471	1.303431972662	3
0	1479	1.311935972662	2
0	1490	1.326542190388	3
0	1493	1.335046190388	2
0	1502	1.336988620304	3
0	1506	1.345492620304	2
0	1516	1.362606585704	3
0	1519	1.371110585704	2
0	1528	1.376759180908	3
0	1532	1.385263180908	2
0	1541	1.392262092134	3
0	1550	1.400766092134	2
0	1550	1.400766092134	3
0	1558	1.409270092134	2
0	1569	1.438117305957	3
0	1572	1.446621305957	2
0	1581	1.450510870085	3
0	1589	1.459014870085	2
0	1589	1.459014870085	3
0	1597	1.467518870085	2
0	1606	1.468316456532	3
0	1618	1.476820456532	2
0	1618	1.476820456532	3
0	1627	1.485324456532	2
0	1627	1.485324456532	3
0	1644	1.493828456532	2
0	1644	1.493828456532	3
0	1658	1.502332456532	2
0	1658	1.502332456532	3
0	1675	1.510836456532	2
0	1675	1.510836456532	3
0	1688	1.519340456532	2
0	1688	1.519340456532	3
0	1701	1.527844456532	2
0	1701	1.527844456532	3
0	1714	1.536348456532	2
0	1714	1.536348456532	3
0	1723	1.544852456532	2
0	1723	1.544852456532	3
0	1736	1.553356456532	2
0	1736	1.553356456532	3
0	1749	1.561860456532	2
0	1749	1.561860456532	3
0	1758	1.570364456532	2
0	1758	1.570364456532	3
0	1775	1.578868456532	2
0	1775	1.578868456532	3
0	1784	1.587372456532	2
0	1784	1.587372456532	3
0	1793	1.595876456532	2
0	1804	1.604662398509	3
0	1812	1.613166398509	2
0	1812	1.613166398509	3
0	1824	1.621670398509	2
0	1824	1.621670398509	3
0	1833	1.630174398509	2
0	1844	1.64372898762	3
0	1847	1.65223298762	2
0	1857	1.663419758555	3
0	1860	1.671923758555	2
0	1869	1.678023992499	3
0	1877	1.686527992499	2
0	1877	1.686527992499	3
0	1885	1.695031992499	2
0	1897	1.709522729784	3
0	1900	1.718026729784	2
0	1909	1.724554020083	3
0	1913	1.733058020083	2
0	1924	1.805738706322	3
0	1931	1.814242706322	2
0	1931	1.814242706322	3
0	1939	1.822746706322	2
0	1949	1.831992053168	3
0	1957	1.840496053168	2
0	1957	1.840496053168	3
0	1973	1.849000053168	2
0	1973	1.849000053168	3
0	1982	1.857504053168	2
0	1982	1.857504053168	3
0	1991	1.866008053168	2
0	2001	1.869784908311	3
0	2005	1.878288908311	2
0	2015	1.889545537527	3
0	2018	1.898049537527	2
0	2027	1.899648109068	3
0	2040	1.908152109068	2
0	2040	1.908152109068	3
0	2048	1.916656109068	2
0	2048	1.916656109068	3
0	2061	1.925160109068	2
0	2061	1.925160109068	3
0	2074	1.933664109068	2
0	2074	1.933664109068	3
0	2083	1.942168109068	2
0	2093	1.943743516144	3
0	2097	1.952247516144	2
0	2107	1.967896788978	3
0	2110	1.976400788978	2
0	2121	2.012416316081	3
0	2124	2.020920316081	2
0	2134	2.035655242931	3
0	2145	2.044159242931	2
0	2145	2.044159242931	3
0	2153	2.052663242931	2
0	2153	2.052663242931	3
0	2170	2.061167242931	2
0	2170	2.061167242931	3
0	2187	2.069671242931	2
0	2187	2.069671242931	3
0	2204	2.078175242931	2
0	2204	2.078175242931	3
0	2213	2.086679242931	2
0	2213	2.086679242931	3
0	2230	2.095183242931	2
0	2230	2.095183242931	3
0	2244	2.103687242931	2
0	2244	2.103687242931	3
0	2253	2.112191242931	2
0	2253	2.112191242931	3
0	2262	2.120695242931	2
0	2262	2.120695242931	3
0	2271	2.129199242931	2
0	2271	2.129199242931	3
0	2284	2.137703242931	2
0	2284	2.137703242931	3
0	2301	2.146207242931	2
0	2301	2.146207242931	3
0	2314	2.154711242931	2
0	2314	2.154711242931	3
0	2327	2.163215242931	2
0	2327	2.163215242931	3
0	2340	2.171719242931	2
0	2340	2.171719242931	3
0	2353	2.180223242931	2
0	2353	2.180223242931	3
0	2362	2.188727242931	2
0	2362	2.188727242931	3
0	2371	2.197231242931	2
0	2382	2.205260755149	3
0	2386	2.213764755149	2
0	2395	2.21668271164	3
0	2399	2.22518671164	2
0	2408	2.225887667495	3
0	2411	2.234391667495	2
0	2421	2.236584210418	3
0	2425	2.245088210418	2
0	2434	2.252301634874	3
0	2442	2.260805634874	2
0	2442	2.260805634874	3
0	2462	2.269309634874	2
0	2462	2.269309634874	3
0	2471	2.277813634874	2
0	2471	2.277813634874	3
0	2480	2.286317634874	2
0	2480	2.286317634874	3
0	2489	2.294821634874	2
0	2500	2.302850240863	3
0	2504	2.311354240863	2
0	2513	2.318994410062	3
0	2521	2.327498410062	2
0	2521	2.327498410062	3
0	2541	2.336002410062	2
0	2541	2.336002410062	3
0	2554	2.344506410062	2
0	2554	2.344506410062	3
0	2567	2.353010410062	2
0	2567	2.353010410062	3
0	2580	2.361514410062	2
0	2580	2.361514410062	3
0	2605	2.370018410062	2
0	2605	2.370018410062	3
0	2614	2.378522410062	2
0	2614	2.378522410062	3
0	2627	2.387026410062	2
0	2627	2.387026410062	3
0	2640	2.395530410062	2
0	2640	2.395530410062	3
0	2654	2.404034410062	2
0	2654	2.404034410062	3
0	2663	2.412538410062	2
0	2663	2.412538410062	3
0	2672	2.421042410062	2
0	2672	2.421042410062	3
0	2685	2.429546410062	2
0	2685	2.429546410062	3
0	2694	2.438050410062	2
0	2694	2.438050410062	3
0	2703	2.446554410062	2
0	2703	2.446554410062	3
0	2712	2.455058410062	2
0	2723	2.482298732409	3
0	2730	2.490802732409	2
0	2730	2.490802732409	3
0	2742	2.499306732409	2
0	2742	2.499306732409	3
0	2760	2.507810732409	2
0	2760	2.507810732409	3
0	2769	2.516314732409	2
0	2769	2.516314732409	3
0	2786	2.524818732409	2
0	2786	2.524818732409	3
0	2799	2.533322732409	2
0	2799	2.533322732409	3
0	2812	2.541826732409	2
0	2812	2.541826732409	3
0	2821	2.550330732409	2
0	2821	2.550330732409	3
0	2830	2.558834732409	2
0	2840	2.561669400952	3
0	2844	2.570173400952	2
0	2853	2.573567452467	3
0	2857	2.582071452467	2
0	2867	2.598297307358	3
0	2875	2.606801307358	2
0	2875	2.606801307358	3
0	2883	2.615305307358	2
0	2893	2.621328836518	3
0	2901	2.629832836518	2
0	2901	2.629832836518	3
0	2909	2.638336836518	2
0	2920	2.660431225778	3
0	2923	2.668935225778	2
0	2932	2.674388585179	3
0	2940	2.682892585179	2
0	2940	2.682892585179	3
0	2948	2.691396585179	2
0	2960	2.712634970432	3
0	2963	2.721138970432	2
0	2972	2.728385066348	3
0	2984	2.736889066348	2
0	2984	2.736889066348	3
0	3000	2.745393066348	2
0	3000	2.745393066348	3
0	3017	2.753897066348	2
0	3017	2.753897066348	3
0	3030	2.762401066348	2
0	3030	2.762401066348	3
0	3047	2.770905066348	2
0	3047	2.770905066348	3
0	3056	2.779409066348	2
0	3056	2.779409066348	3
0	3069	2.787913066348	2
0	3069	2.787913066348	3
0	3078	2.796417066348	2
0	3078	2.796417066348	3
0	3092	2.804921066348	2
0	3092	2.804921066348	3
0	3105	2.813425066348	2
0	3105	2.813425066348	3
0	3122	2.821929066348	2
0	3122	2.821929066348	3
0	3131	2.830433066348	2
0	3131	2.830433066348	3
0	3148	2.838937066348	2
0	3148	2.838937066348	3
0	3157	2.847441066348	2
0	3157	2.847441066348	3
0	3178	2.855945066348	2
0	3178	2.855945066348	3
0	3191	2.864449066348	2
0	3191	2.864449066348	3
0	3204	2.872953066348	2
0	3204	2.872953066348	3
0	3213	2.881457066348	2
0	3213	2.881457066348	3
0	3222	2.889961066348	2
0	3222	2.889961066348	3
0	3231	2.898465066348	2
0	3231	2.898465066348	3
0	3245	2.906969066348	2
0	3245	2.906969066348	3
0	3254	2.915473066348	2
0	3254	2.915473066348	3
0	3267	2.923977066348	2
0	3267	2.923977066348	3
0	3276	2.932481066348	2
0	3285	2.933378235419	3
0	3289	2.941882235419	2
0	3300	2.961464138947	3
0	3307	2.969968138947	2
0	3307	2.969968138947	3
0	3319	2.978472138947	2
0	3319	2.978472138947	3
0	3332	2.986976138947	2
0	3332	2.986976138947	3
0	3341	2.995480138947	2
0	3353	3.021910680853	3
0	3364	3.030414680853	2
0	3364	3.030414680853	3
0	3380	3.038918680853	2
0	3380	3.038918680853	3
0	3389	3.047422680853	2
0	3389	3.047422680853	3
0	3398	3.055926680853	2
0	3398	3.055926680853	3
0	3411	3.064430680853	2
0	3411	3.064430680853	3
0	3420	3.072934680853	2
0	3430	3.075961909561	3
0	3434	3.084465909561	2
0	3443	3.094415854135	3
0	3452	3.102919854135	2
0	3452	3.102919854135	3
0	3468	3.111423854135	2
0	3468	3.111423854135	3
0	3481	3.119927854135	2
0	3481	3.119927854135	3
0	3490	3.128431854135	2
0	3490	3.128431854135	3
0	3499	3.136935854135	2
0	3510	3.163280421768	3
0	3513	3.171784421768	2
0	3523	3.188379100639	3
0	3530	3.196883100639	2
0	3530	3.196883100639	3
0	3539	3.205387100639	2
0	3550	3.232438910766	3
0	3557	3.240942910766	2
0	3557	3.240942910766	3
0	3565	3.249446910766	2
0	3576	3.271388244226	3
0	3579	3.279892244226	2
0	3590	3.305427926547	3
0	3593	3.313931926547	2
0	3603	3.324693431704	3
0	3606	3.333197431704	2
0	3615	3.336638995424	3
0	3619	3.345142995424	2
0	3629	3.361524132981	3
0	3636	3.370028132981	2
0	3636	3.370028132981	3
0	3644	3.378532132981	2
0	3654	3.388366393003	3
0	3658	3.396870393003	2
0	3667	3.399910536122	3
0	3684	3.408414536122	2
0	3684	3.408414536122	3
0	3692	3.416918536122	2
0	3692	3.416918536122	3
0	3701	3.425422536122	2
0	3701	3.425422536122	3
0	3710	3.433926536122	2
0	3721	3.455208273796	3
0	3728	3.463712273796	2
0	3728	3.463712273796	3
0	3740	3.472216273796	2
0	3740	3.472216273796	3
0	3749	3.480720273796	2
0	3759	3.483515408701	3
0	3771	3.492019408701	2
0	3771	3.492019408701	3
0	3780	3.500523408701	2
0	3780	3.500523408701	3
0	3789	3.509027408701	2
0	3799	3.511519205519	3
0	3807	3.520023205519	2
0	3807	3.520023205519	3
0	3827	3.528527205519	2
0	3827	3.528527205519	3
0	3836	3.537031205519	2
0	3836	3.537031205519	3
0	3845	3.545535205519	2
0	3845	3.545535205519	3
0	3858	3.554039205519	2
0	3858	3.554039205519	3
0	3867	3.562543205519	2
0	3878	3.594011881851	3
0	3882	3.602515881851	2
0	3892	3.632891437454	3
0	3895	3.641395437454	2
0	3905	3.661336088421	3
0	3908	3.669840088421	2
0	3917	3.679185245473	3
0	3929	3.687689245473	2
0	3929	3.687689245473	3
0	3945	3.696193245473	2
0	3945	3.696193245473	3
0	3963	3.704697245473	2
0	3963	3.704697245473	3
0	3980	3.713201245473	2
0	3980	3.713201245473	3
0	3989	3.721705245473	2
0	3989	3.721705245473	3
0	4002	3.730209245473	2
0	4002	3.730209245473	3
0	4023	3.738713245473	2
0	4023	3.738713245473	3
0	4032	3.747217245473	2
0	4032	3.747217245473	3
0	4049	3.755721245473	2
0	4049	3.755721245473	3
0	4062	3.764225245473	2
0	4062	3.764225245473	3
0	4075	3.772729245473	2
0	4075	3.772729245473	3
0	4084	3.781233245473	2
0	4084	3.781233245473	3
0	4093	3.789737245473	2
0	4093	3.789737245473	3
0	4106	3.798241245473	2
0	4106	3.798241245473	3
0	4120	3.806745245473	2
0	4120	3.806745245473	3
0	4141	3.815249245473	2
0	4141	3.815249245473	3
0	4158	3.823753245473	2
0	4158	3.823753245473	3
0	4171	3.832257245473	2
0	4171	3.832257245473	3
0	4180	3.840761245473	2
0	4180	3.840761245473	3
0	4193	3.849265245473	2
0	4193	3.849265245473	3
0	4206	3.857769245473	2
0	4206	3.857769245473	3
0	4223	3.866273245473	2
0	4223	3.866273245473	3
0	4236	3.874777245473	2
0	4236	3.874777245473	3
0	4245	3.883281245473	2
0	4245	3.883281245473	3
0	4262	3.891785245473	2
0	4262	3.891785245473	3
0	4272	3.900289245473	2
0	4272	3.900289245473	3
0	4285	3.908793245473	2
0	4285	3.908793245473	3
0	4294	3.917297245473	2
0	4294	3.917297245473	3
0	4307	3.925801245473	2
0	4307	3.925801245473	3
0	4316	3.934305245473	2
0	4316	3.934305245473	3
0	4333	3.942809245473	2
0	4333	3.942809245473	3
0	4346	3.951313245473	2
0	4346	3.951313245473	3
0	4359	3.959817245473	2
0	4359	3.959817245473	3
0	4376	3.968321245473	2
0	4376	3.968321245473	3
0	4389	3.976825245473	2
0	4389	3.976825245473	3
0	4406	3.985329245473	2
0	4406	3.985329245473	3
0	4415	3.993833245473	2
0	4415	3.993833245473	3
0	4433	4.002337245473	2
0	4433	4.002337245473	3
0	4446	4.010841245473	2
0	4446	4.010841245473	3
0	4459	4.019345245473	2
0	4459	4.019345245473	3
0	4472	4.027849245473	2
0	4472	4.027849245473	3
0	4481	4.036353245473	2
0	4481	4.036353245473	3
0	4490	4.044857245473	2
0	4490	4.044857245473	3
0	4499	4.053361245473	2
0	4499	4.053361245473	3
0	4512	4.061865245473	2
0	4512	4.061865245473	3
0	4521	4.070369245473	2
0	4521	4.070369245473	3
0	4538	4.078873245473	2
0	4538	4.078873245473	3
0	4551	4.087377245473	2
0	4551	4.087377245473	3
0	4564	4.095881245473	2
0	4564	4.095881245473	3
0	4578	4.104385245473	2
0	4578	4.104385245473	3
0	4591	4.112889245473	2
0	4591	4.112889245473	3
0	4608	4.121393245473	2
0	4608	4.121393245473	3
0	4621	4.129897245473	2
0	4621	4.129897245473	3
0	4630	4.138401245473	2
0	4630	4.138401245473	3
0	4639	4.146905245473	2
0	4639	4.146905245473	3
0	4648	4.155409245473	2
0	4648	4.155409245473	3
0	4665	4.163913245473	2
0	4665	4.163913245473	3
0	4674	4.172417245473	2
0	4674	4.172417245473	3
0	4683	4.180921245473	2
0	4683	4.180921245473	3
0	4692	4.189425245473	2
0	4701	4.190880830901	3
0	4705	4.199384830901	2
0	4716	4.200298875136	3
0	4723	4.208802875136	2
0	4723	4.208802875136	3
0	4732	4.217306875136	2
0	4743	4.233273729561	3
0	4750	4.241777729561	2
0	4750	4.241777729561	3
0	4758	4.250281729561	2
0	4768	4.256092523779	3
0	4776	4.264596523779	2
0	4776	4.264596523779	3
0	4784	4.273100523779	2
0	4795	4.290329389311	3
0	4798	4.298833389311	2
0	4808	4.30438455365	3
0	4812	4.31288855365	2
0	4821	4.318817119056	3
0	4829	4.327321119056	2
0	4829	4.327321119056	3
0	4837	4.335825119056	2
0	4847	4.34054749041	3
0	4851	4.34905149041	2
0	4860	4.352676720367	3
0	4872	4.361180720367	2
0	4872	4.361180720367	3
0	4880	4.369684720367	2
0	4880	4.369684720367	3
0	4893	4.378188720367	2
0	4893	4.378188720367	3
0	4902	4.386692720367	2
0	4914	4.415547956405	3
0	4921	4.424051956405	2
0	4921	4.424051956405	3
0	4929	4.432555956405	2
0	4938	4.433628918575	3
0	4942	4.442132918575	2
0	4953	4.457028641517	3
0	4960	4.465532641517	2
0	4960	4.465532641517	3
0	4968	4.474036641517	2
0	4980	4.500768643121	3
0	4983	4.509272643121	2
0	4992	4.511057864352	3
0	4996	4.519561864352	2
0	5006	4.531686696093	3
0	5009	4.540190696093	2
0	5019	4.560428853566	3
0	5022	4.568932853566	2
0	5032	4.580711673023	3
0	5039	4.589215673023	2
0	5039	4.589215673023	3
0	5051	4.597719673023	2
0	5051	4.597719673023	3
0	5069	4.606223673023	2
0	5069	4.606223673023	3
0	5086	4.614727673023	2
0	5086	4.614727673023	3
0	5095	4.623231673023	2
0	5095	4.623231673023	3
0	5104	4.631735673023	2
0	5104	4.631735673023	3
0	5121	4.640239673023	2
0	5121	4.640239673023	3
0	5130	4.648743673023	2
0	5130	4.648743673023	3
0	5139	4.657247673023	2
0	5150	4.673199466141	3
0	5157	4.681703466141	2
0	5157	4.681703466141	3
0	5177	4.690207466141	2
0	5177	4.690207466141	3
0	5190	4.698711466141	2
0	5190	4.698711466141	3
0	5200	4.707215466141	2
0	5200	4.707215466141	3
0	5209	4.715719466141	2
0	5209	4.715719466141	3
0	5218	4.724223466141	2
0	5227	4.72436341736	3
0	5235	4.73286741736	2
0	5235	4.73286741736	3
0	5244	4.74137141736	2
0	5255	4.760493645572	3
0	5258	4.768997645572	2
0	5268	4.784929175819	3
0	5275	4.793433175819	2
0	5275	4.793433175819	3
0	5292	4.801937175819	2
0	5292	4.801937175819	3
0	5301	4.810441175819	2
0	5301	4.810441175819	3
0	5326	4.818945175819	2
0	5326	4.818945175819	3
0	5347	4.827449175819	2
0	5347	4.827449175819	3
0	5372	4.835953175819	2
0	5372	4.835953175819	3
0	5381	4.844457175819	2
0	5381	4.844457175819	3
0	5394	4.852961175819	2
0	5394	4.852961175819	3
0	5403	4.861465175819	2
0	5403	4.861465175819	3
0	5412	4.869969175819	2
0	5412	4.869969175819	3
0	5421	4.878473175819	2
0	5421	4.878473175819	3
0	5430	4.886977175819	2
0	5430	4.886977175819	3
0	5443	4.895481175819	2
0	5443	4.895481175819	3
0	5453	4.903985175819	2
0	5453	4.903985175819	3
0	5462	4.912489175819	2
0	5462	4.912489175819	3
0	5471	4.920993175819	2
0	5471	4.920993175819	3
0	5480	4.929497175819	2
0	5491	4.944167199513	3
0	5502	4.952671199513	2
0	5502	4.952671199513	3
0	5510	4.961175199513	2
0	5510	4.961175199513	3
0	5523	4.969679199513	2
0	5523	4.969679199513	3
0	5536	4.978183199513	2
0	5536	4.978183199513	3
0	5545	4.986687199513	2
0	5557	5.027493908655	3
0	5564	5.035997908655	2
0	5564	5.035997908655	3
0	5572	5.044501908655	2
0	5582	5.046651584987	3
0	5594	5.055155584987	2
0	5594	5.055155584987	3
0	5602	5.063659584987	2
0	5602	5.063659584987	3
0	5619	5.072163584987	2
0	5619	5.072163584987	3
0	5628	5.080667584987	2
0	5628	5.080667584987	3
0	5641	5.089171584987	2
0	5641	5.089171584987	3
0	5654	5.097675584987	2
0	5654	5.097675584987	3
0	5668	5.106179584987	2
0	5668	5.106179584987	3
0	5685	5.114683584987	2
0	5685	5.114683584987	3
0	5694	5.123187584987	2
0	5694	5.123187584987	3
0	5707	5.131691584987	2
0	5707	5.131691584987	3
0	5724	5.140195584987	2
0	5724	5.140195584987	3
0	5733	5.148699584987	2
0	5733	5.148699584987	3
0	5742	5.157203584987	2
0	5752	5.160437370677	3
0	5756	5.168941370677	2
0	5766	5.191515284423	3
0	5778	5.200019284423	2
0	5778	5.200019284423	3
0	5790	5.208523284423	2
0	5790	5.208523284423	3
0	5799	5.217027284423	2
0	5799	5.217027284423	3
0	5812	5.225531284423	2
0	5812	5.225531284423	3
0	5821	5.234035284423	2
0	5832	5.271442763227	3
0	5835	5.279946763227	2
0	5846	5.313117031698	3
0	5849	5.321621031698	2
0	5859	5.341357048915	3
0	5866	5.349861048915	2
0	5866	5.349861048915	3
0	5874	5.358365048915	2
0	5886	5.403534900516	3
0	5897	5.412038900516	2
0	5897	5.412038900516	3
0	5905	5.420542900516	2
0	5905	5.420542900516	3
0	5914	5.429046900516	2
0	5925	5.444500763421	3
0	5932	5.453004763421	2
0	5932	5.453004763421	3
0	5940	5.461508763421	2
0	5949	5.461735790769	3
0	5957	5.470239790769	2
0	5957	5.470239790769	3
0	5970	5.478743790769	2
0	5970	5.478743790769	3
0	5979	5.487247790769	2
0	5991	5.503817316906	3
0	5998	5.512321316906	2
0	5998	5.512321316906	3
0	6014	5.520825316906	2
0	6014	5.520825316906	3
0	6023	5.529329316906	2
0	6023	5.529329316906	3
0	6036	5.537833316906	2
0	6036	5.537833316906	3
0	6053	5.546337316906	2
0	6053	5.546337316906	3
0	6070	5.554841316906	2
0	6070	5.554841316906	3
0	6079	5.563345316906	2
0	6079	5.563345316906	3
0	6088	5.571849316906	2
0	6088	5.571849316906	3
0	6105	5.580353316906	2
0	6105	5.580353316906	3
0	6118	5.588857316906	2
0	6118	5.588857316906	3
0	6127	5.597361316906	2
0	6127	5.597361316906	3
0	6137	5.605865316906	2
0	6148	5.620445508973	3
0	6151	5.628949508973	2
0	6160	5.632506896756	3
0	6164	5.641010896756	2
0	6174	5.656741910795	3
0	6177	5.665245910795	2
0	6187	5.690544851555	3
0	6190	5.699048851555	2
0	6200	5.707217153638	3
0	6204	5.715721153638	2
0	6213	5.721647841775	3
0	6217	5.730151841775	2
0	6227	5.762939170346	3
0	6230	5.771443170346	2
0	6241	5.825160723422	3
0	6252	5.833664723422	2
0	6252	5.833664723422	3
0	6268	5.842168723422	2
0	6268	5.842168723422	3
0	6285	5.850672723422	2
0	6285	5.850672723422	3
0	6298	5.859176723422	2
0	6298	5.859176723422	3
0	6311	5.867680723422	2
0	6311	5.867680723422	3
0	6320	5.876184723422	2
0	6320	5.876184723422	3
0	6329	5.884688723422	2
0	6329	5.884688723422	3
0	6342	5.893192723422	2
0	6342	5.893192723422	3
0	6352	5.901696723422	2
0	6352	5.901696723422	3
0	6361	5.910200723422	2
0	6372	5.932798914007	3
0	6375	5.941302914007	2
0	6384	5.942298223142	3
0	6391	5.950802223142	2
0	6391	5.950802223142	3
0	6404	5.959306223142	2
0	6404	5.959306223142	3
0	6413	5.967810223142	2
0	6424	5.984167464234	3
0	6431	5.992671464234	2
0	6431	5.992671464234	3
0	6444	6.001175464234	2
0	6444	6.001175464234	3
0	6457	6.009679464234	2
0	6457	6.009679464234	3
0	6474	6.018183464234	2
0	6474	6.018183464234	3
0	6487	6.026687464234	2
0	6487	6.026687464234	3
0	6504	6.035191464234	2
0	6504	6.035191464234	3
0	6517	6.043695464234	2
0	6517	6.043695464234	3
0	6530	6.052199464234	2
0	6530	6.052199464234	3
0	6539	6.060703464234	2
0	6539	6.060703464234	3
0	6552	6.069207464234	2
0	6552	6.069207464234	3
0	6565	6.077711464234	2
0	6565	6.077711464234	3
0	6574	6.086215464234	2
0	6574	6.086215464234	3
0	6583	6.094719464234	2
0	6594	6.100694534439	3
0	6598	6.109198534439	2
0	6608	6.124488285402	3
0	6619	6.132992285402	2
0	6619	6.132992285402	3
0	6635	6.141496285402	2
0	6635	6.141496285402	3
0	6648	6.150000285402	2
0	6648	6.150000285402	3