version 3
run plain-0-20231129-01:48:47-37084
attr configname plain
attr datetime 20231129-01:48:47
attr datetimef 20231129-014847
attr experiment plain
attr inifile omnetpp.ini
attr iterationvars ""
attr iterationvarsd ""
attr iterationvarsf ""
attr measurement ""
attr network Scenario
attr processid 37084
attr repetition 0
attr replication #0
attr resultdir results
attr runnumber 0
attr seedset 0
config image-path ../../../../inet-4.3.5/inet-4.3.5/images;../../../../veins-5.2/veins-veins-5.2/images
config network Scenario
config sim-time-limit 120s
config debug-on-errors true
config cmdenv-express-mode true
config image-path ../../../../images
config *.node[*].numApps 1
config *.node[*].app[0].typename test.veins_inet.VeinsInetSampleApplication
config *.node[*].app[0].interface "\"wlan0\""
config *.node[*].wlan[0].opMode "\"p\""
config *.node[*].wlan[0].radio.typename Ieee80211DimensionalRadio
config *.node[*].wlan[0].radio.bandName "\"5.9 GHz\""
config *.node[*].wlan[0].radio.channelNumber 3
config *.node[*].wlan[0].radio.transmitter.power 20mW
config *.node[*].wlan[0].radio.bandwidth "10 MHz"
config *.node[*].wlan[*].radio.antenna.mobility.typename AttachedMobility
config *.node[*].wlan[*].radio.antenna.mobility.mobilityModule "\"^.^.^.^.mobility\""
config *.node[*].wlan[*].radio.antenna.mobility.offsetX -2.5m
config *.node[*].wlan[*].radio.antenna.mobility.offsetZ 1.5m
config *.node[*].wlan[*].radio.antenna.mobility.constraintAreaMinX 0m
config *.node[*].wlan[*].radio.antenna.mobility.constraintAreaMaxX 0m
config *.node[*].wlan[*].radio.antenna.mobility.constraintAreaMinY 0m
config *.node[*].wlan[*].radio.antenna.mobility.constraintAreaMaxY 0m
config *.node[*].wlan[*].radio.antenna.mobility.constraintAreaMinZ 0m
config *.node[*].wlan[*].radio.antenna.mobility.constraintAreaMaxZ 0m
config *.node[*].ipv4.configurator.typename HostAutoConfigurator
config *.node[*].ipv4.configurator.interfaces "\"wlan0\""
config *.node[*].ipv4.configurator.mcastGroups "\"224.0.0.1\""
config *.node[*].mobility.typename VeinsInetMobility
config *.manager.updateInterval 0.1s
config *.manager.host "\"localhost\""
config *.manager.port 9999
config *.manager.autoShutdown true
config *.manager.launchConfig "xmldoc(\"thuyloi.launchd.xml\")"
config *.manager.moduleType "\"test.veins_inet.VeinsInetCar\""
config *.physicalEnvironment.config "xmldoc(\"obstacles.xml\")"
config *.radioMedium.obstacleLoss.typename IdealObstacleLoss
config **.vector-recording true

vector 0 Scenario.node[0].wlan[0].radio radioMode:vector ETV
attr interpolationmode sample-hold
attr source radioModeChanged
attr title "Radio mode, vector"
vector 1 Scenario.node[0].wlan[0].radio radioChannel:vector ETV
attr interpolationmode sample-hold
attr source radioChannelChanged
attr title "Radio channel, vector"
vector 2 Scenario.node[0].wlan[0].radio receptionState:vector ETV
attr interpolationmode sample-hold
attr source receptionStateChanged
attr title "Radio reception state, vector"
vector 3 Scenario.node[0].wlan[0].mac.dcf.channelAccess.contention stateChanged:vector ETV
attr enum IDLE,DEFER,IFS_AND_BACKOFF
attr interpolationmode none
attr title "contention state changed, vector"
attr type enum
vector 4 Scenario.node[0].wlan[0].mac.dcf.recoveryProcedure contentionWindowChanged:vector ETV
attr interpolationmode sample-hold
attr title "contention window, vector"
vector 5 Scenario.node[1].wlan[0].radio radioMode:vector ETV
attr interpolationmode sample-hold
attr source radioModeChanged
attr title "Radio mode, vector"
vector 6 Scenario.node[1].wlan[0].radio radioChannel:vector ETV
attr interpolationmode sample-hold
attr source radioChannelChanged
attr title "Radio channel, vector"
vector 7 Scenario.node[1].wlan[0].radio receptionState:vector ETV
attr interpolationmode sample-hold
attr source receptionStateChanged
attr title "Radio reception state, vector"
vector 8 Scenario.node[1].wlan[0].mac.dcf.channelAccess.contention stateChanged:vector ETV
attr enum IDLE,DEFER,IFS_AND_BACKOFF
attr interpolationmode none
attr title "contention state changed, vector"
attr type enum
vector 9 Scenario.node[1].wlan[0].mac.dcf.recoveryProcedure contentionWindowChanged:vector ETV
attr interpolationmode sample-hold
attr title "contention window, vector"
vector 10 Scenario.node[2].wlan[0].radio radioMode:vector ETV
attr interpolationmode sample-hold
attr source radioModeChanged
attr title "Radio mode, vector"
vector 11 Scenario.node[2].wlan[0].radio radioChannel:vector ETV
attr interpolationmode sample-hold
attr source radioChannelChanged
attr title "Radio channel, vector"
vector 12 Scenario.node[2].wlan[0].radio receptionState:vector ETV
attr interpolationmode sample-hold
attr source receptionStateChanged
attr title "Radio reception state, vector"
vector 13 Scenario.node[2].wlan[0].mac.dcf.channelAccess.contention stateChanged:vector ETV
attr enum IDLE,DEFER,IFS_AND_BACKOFF
attr interpolationmode none
attr title "contention state changed, vector"
attr type enum
vector 14 Scenario.node[2].wlan[0].mac.dcf.recoveryProcedure contentionWindowChanged:vector ETV
attr interpolationmode sample-hold
attr title "contention window, vector"
vector 15 Scenario.node[3].wlan[0].radio radioMode:vector ETV
attr interpolationmode sample-hold
attr source radioModeChanged
attr title "Radio mode, vector"
vector 16 Scenario.node[3].wlan[0].radio radioChannel:vector ETV
attr interpolationmode sample-hold
attr source radioChannelChanged
attr title "Radio channel, vector"
vector 17 Scenario.node[3].wlan[0].radio receptionState:vector ETV
attr interpolationmode sample-hold
attr source receptionStateChanged
attr title "Radio reception state, vector"
vector 18 Scenario.node[3].wlan[0].mac.dcf.channelAccess.contention stateChanged:vector ETV
attr enum IDLE,DEFER,IFS_AND_BACKOFF
attr interpolationmode none
attr title "contention state changed, vector"
attr type enum
vector 19 Scenario.node[3].wlan[0].mac.dcf.recoveryProcedure contentionWindowChanged:vector ETV
attr interpolationmode sample-hold
attr title "contention window, vector"
vector 20 Scenario.node[4].wlan[0].radio radioMode:vector ETV
attr interpolationmode sample-hold
attr source radioModeChanged
attr title "Radio mode, vector"
vector 21 Scenario.node[4].wlan[0].radio radioChannel:vector ETV
attr interpolationmode sample-hold
attr source radioChannelChanged
attr title "Radio channel, vector"
vector 22 Scenario.node[4].wlan[0].radio receptionState:vector ETV
attr interpolationmode sample-hold
attr source receptionStateChanged
attr title "Radio reception state, vector"
vector 23 Scenario.node[4].wlan[0].mac.dcf.channelAccess.contention stateChanged:vector ETV
attr enum IDLE,DEFER,IFS_AND_BACKOFF
attr interpolationmode none
attr title "contention state changed, vector"
attr type enum
vector 24 Scenario.node[4].wlan[0].mac.dcf.recoveryProcedure contentionWindowChanged:vector ETV
attr interpolationmode sample-hold
attr title "contention window, vector"
vector 25 Scenario.node[5].wlan[0].radio radioMode:vector ETV
attr interpolationmode sample-hold
attr source radioModeChanged
attr title "Radio mode, vector"
vector 26 Scenario.node[5].wlan[0].radio radioChannel:vector ETV
attr interpolationmode sample-hold
attr source radioChannelChanged
attr title "Radio channel, vector"
vector 27 Scenario.node[5].wlan[0].radio receptionState:vector ETV
attr interpolationmode sample-hold
attr source receptionStateChanged
attr title "Radio reception state, vector"
vector 28 Scenario.node[5].wlan[0].mac.dcf.channelAccess.contention stateChanged:vector ETV
attr enum IDLE,DEFER,IFS_AND_BACKOFF
attr interpolationmode none
attr title "contention state changed, vector"
attr type enum
vector 29 Scenario.node[5].wlan[0].mac.dcf.recoveryProcedure contentionWindowChanged:vector ETV
attr interpolationmode sample-hold
attr title "contention window, vector"
vector 30 Scenario.node[6].wlan[0].radio radioMode:vector ETV
attr interpolationmode sample-hold
attr source radioModeChanged
attr title "Radio mode, vector"
vector 31 Scenario.node[6].wlan[0].radio radioChannel:vector ETV
attr interpolationmode sample-hold
attr source radioChannelChanged
attr title "Radio channel, vector"
vector 32 Scenario.node[6].wlan[0].radio receptionState:vector ETV
attr interpolationmode sample-hold
attr source receptionStateChanged
attr title "Radio reception state, vector"
vector 33 Scenario.node[6].wlan[0].mac.dcf.channelAccess.contention stateChanged:vector ETV
attr enum IDLE,DEFER,IFS_AND_BACKOFF
attr interpolationmode none
attr title "contention state changed, vector"
attr type enum
vector 34 Scenario.node[6].wlan[0].mac.dcf.recoveryProcedure contentionWindowChanged:vector ETV
attr interpolationmode sample-hold
attr title "contention window, vector"
vector 35 Scenario.node[7].wlan[0].radio radioMode:vector ETV
attr interpolationmode sample-hold
attr source radioModeChanged
attr title "Radio mode, vector"
vector 36 Scenario.node[7].wlan[0].radio radioChannel:vector ETV
attr interpolationmode sample-hold
attr source radioChannelChanged
attr title "Radio channel, vector"
vector 37 Scenario.node[7].wlan[0].radio receptionState:vector ETV
attr interpolationmode sample-hold
attr source receptionStateChanged
attr title "Radio reception state, vector"
vector 38 Scenario.node[7].wlan[0].mac.dcf.channelAccess.contention stateChanged:vector ETV
attr enum IDLE,DEFER,IFS_AND_BACKOFF
attr interpolationmode none
attr title "contention state changed, vector"
attr type enum
vector 39 Scenario.node[7].wlan[0].mac.dcf.recoveryProcedure contentionWindowChanged:vector ETV
attr interpolationmode sample-hold
attr title "contention window, vector"
vector 40 Scenario.node[8].wlan[0].radio radioMode:vector ETV
attr interpolationmode sample-hold
attr source radioModeChanged
attr title "Radio mode, vector"
vector 41 Scenario.node[8].wlan[0].radio radioChannel:vector ETV
attr interpolationmode sample-hold
attr source radioChannelChanged
attr title "Radio channel, vector"
vector 42 Scenario.node[8].wlan[0].radio receptionState:vector ETV
attr interpolationmode sample-hold
attr source receptionStateChanged
attr title "Radio reception state, vector"
vector 43 Scenario.node[8].wlan[0].mac.dcf.channelAccess.contention stateChanged:vector ETV
attr enum IDLE,DEFER,IFS_AND_BACKOFF
attr interpolationmode none
attr title "contention state changed, vector"
attr type enum
vector 44 Scenario.node[8].wlan[0].mac.dcf.recoveryProcedure contentionWindowChanged:vector ETV
attr interpolationmode sample-hold
attr title "contention window, vector"
vector 45 Scenario.node[9].wlan[0].radio radioMode:vector ETV
attr interpolationmode sample-hold
attr source radioModeChanged
attr title "Radio mode, vector"
vector 46 Scenario.node[9].wlan[0].radio radioChannel:vector ETV
attr interpolationmode sample-hold
attr source radioChannelChanged
attr title "Radio channel, vector"
vector 47 Scenario.node[9].wlan[0].radio receptionState:vector ETV
attr interpolationmode sample-hold
attr source receptionStateChanged
attr title "Radio reception state, vector"
vector 48 Scenario.node[9].wlan[0].mac.dcf.channelAccess.contention stateChanged:vector ETV
attr enum IDLE,DEFER,IFS_AND_BACKOFF
attr interpolationmode none
attr title "contention state changed, vector"
attr type enum
vector 49 Scenario.node[9].wlan[0].mac.dcf.recoveryProcedure contentionWindowChanged:vector ETV
attr interpolationmode sample-hold
attr title "contention window, vector"
vector 50 Scenario.node[10].wlan[0].radio radioMode:vector ETV
attr interpolationmode sample-hold
attr source radioModeChanged
attr title "Radio mode, vector"
vector 51 Scenario.node[10].wlan[0].radio radioChannel:vector ETV
attr interpolationmode sample-hold
attr source radioChannelChanged
attr title "Radio channel, vector"
vector 52 Scenario.node[10].wlan[0].radio receptionState:vector ETV
attr interpolationmode sample-hold
attr source receptionStateChanged
attr title "Radio reception state, vector"
vector 53 Scenario.node[10].wlan[0].mac.dcf.channelAccess.contention stateChanged:vector ETV
attr enum IDLE,DEFER,IFS_AND_BACKOFF
attr interpolationmode none
attr title "contention state changed, vector"
attr type enum
vector 54 Scenario.node[10].wlan[0].mac.dcf.recoveryProcedure contentionWindowChanged:vector ETV
attr interpolationmode sample-hold
attr title "contention window, vector"
vector 55 Scenario.node[11].wlan[0].radio radioMode:vector ETV
attr interpolationmode sample-hold
attr source radioModeChanged
attr title "Radio mode, vector"
vector 56 Scenario.node[11].wlan[0].radio radioChannel:vector ETV
attr interpolationmode sample-hold
attr source radioChannelChanged
attr title "Radio channel, vector"
vector 57 Scenario.node[11].wlan[0].radio receptionState:vector ETV
attr interpolationmode sample-hold
attr source receptionStateChanged
attr title "Radio reception state, vector"
vector 58 Scenario.node[11].wlan[0].mac.dcf.channelAccess.contention stateChanged:vector ETV
attr enum IDLE,DEFER,IFS_AND_BACKOFF
attr interpolationmode none
attr title "contention state changed, vector"
attr type enum
vector 59 Scenario.node[11].wlan[0].mac.dcf.recoveryProcedure contentionWindowChanged:vector ETV
attr interpolationmode sample-hold
attr title "contention window, vector"
vector 60 Scenario.node[12].wlan[0].radio radioMode:vector ETV
attr interpolationmode sample-hold
attr source radioModeChanged
attr title "Radio mode, vector"
vector 61 Scenario.node[12].wlan[0].radio radioChannel:vector ETV
attr interpolationmode sample-hold
attr source radioChannelChanged
attr title "Radio channel, vector"
vector 62 Scenario.node[12].wlan[0].radio receptionState:vector ETV
attr interpolationmode sample-hold
attr source receptionStateChanged
attr title "Radio reception state, vector"
vector 63 Scenario.node[12].wlan[0].mac.dcf.channelAccess.contention stateChanged:vector ETV
attr enum IDLE,DEFER,IFS_AND_BACKOFF
attr interpolationmode none
attr title "contention state changed, vector"
attr type enum
vector 64 Scenario.node[12].wlan[0].mac.dcf.recoveryProcedure contentionWindowChanged:vector ETV
attr interpolationmode sample-hold
attr title "contention window, vector"
vector 65 Scenario.node[13].wlan[0].radio radioMode:vector ETV
attr interpolationmode sample-hold
attr source radioModeChanged
attr title "Radio mode, vector"
vector 66 Scenario.node[13].wlan[0].radio radioChannel:vector ETV
attr interpolationmode sample-hold
attr source radioChannelChanged
attr title "Radio channel, vector"
vector 67 Scenario.node[13].wlan[0].radio receptionState:vector ETV
attr interpolationmode sample-hold
attr source receptionStateChanged
attr title "Radio reception state, vector"
vector 68 Scenario.node[13].wlan[0].mac.dcf.channelAccess.contention stateChanged:vector ETV
attr enum IDLE,DEFER,IFS_AND_BACKOFF
attr interpolationmode none
attr title "contention state changed, vector"
attr type enum
vector 69 Scenario.node[13].wlan[0].mac.dcf.recoveryProcedure contentionWindowChanged:vector ETV
attr interpolationmode sample-hold
attr title "contention window, vector"
vector 70 Scenario.node[14].wlan[0].radio radioMode:vector ETV
attr interpolationmode sample-hold
attr source radioModeChanged
attr title "Radio mode, vector"
vector 71 Scenario.node[14].wlan[0].radio radioChannel:vector ETV
attr interpolationmode sample-hold
attr source radioChannelChanged
attr title "Radio channel, vector"
vector 72 Scenario.node[14].wlan[0].radio receptionState:vector ETV
attr interpolationmode sample-hold
attr source receptionStateChanged
attr title "Radio reception state, vector"
vector 73 Scenario.node[14].wlan[0].mac.dcf.channelAccess.contention stateChanged:vector ETV
attr enum IDLE,DEFER,IFS_AND_BACKOFF
attr interpolationmode none
attr title "contention state changed, vector"
attr type enum
vector 74 Scenario.node[14].wlan[0].mac.dcf.recoveryProcedure contentionWindowChanged:vector ETV
attr interpolationmode sample-hold
attr title "contention window, vector"
vector 75 Scenario.node[15].wlan[0].radio radioMode:vector ETV
attr interpolationmode sample-hold
attr source radioModeChanged
attr title "Radio mode, vector"
vector 76 Scenario.node[15].wlan[0].radio radioChannel:vector ETV
attr interpolationmode sample-hold
attr source radioChannelChanged
attr title "Radio channel, vector"
vector 77 Scenario.node[15].wlan[0].radio receptionState:vector ETV
attr interpolationmode sample-hold
attr source receptionStateChanged
attr title "Radio reception state, vector"
vector 78 Scenario.node[15].wlan[0].mac.dcf.channelAccess.contention stateChanged:vector ETV
attr enum IDLE,DEFER,IFS_AND_BACKOFF
attr interpolationmode none
attr title "contention state changed, vector"
attr type enum
vector 79 Scenario.node[15].wlan[0].mac.dcf.recoveryProcedure contentionWindowChanged:vector ETV
attr interpolationmode sample-hold
attr title "contention window, vector"
vector 80 Scenario.node[16].wlan[0].radio radioMode:vector ETV
attr interpolationmode sample-hold
attr source radioModeChanged
attr title "Radio mode, vector"
vector 81 Scenario.node[16].wlan[0].radio radioChannel:vector ETV
attr interpolationmode sample-hold
attr source radioChannelChanged
attr title "Radio channel, vector"
vector 82 Scenario.node[16].wlan[0].radio receptionState:vector ETV
attr interpolationmode sample-hold
attr source receptionStateChanged
attr title "Radio reception state, vector"
vector 83 Scenario.node[16].wlan[0].mac.dcf.channelAccess.contention stateChanged:vector ETV
attr enum IDLE,DEFER,IFS_AND_BACKOFF
attr interpolationmode none
attr title "contention state changed, vector"
attr type enum
vector 84 Scenario.node[16].wlan[0].mac.dcf.recoveryProcedure contentionWindowChanged:vector ETV
attr interpolationmode sample-hold
attr title "contention window, vector"
vector 85 Scenario.node[0].app[0] packetSent:vector(packetBytes) ETV
attr interpolationmode none
attr source packetSent
attr title "packets sent, vector(packetBytes)"
vector 86 Scenario.node[0].udp packetSent:vector(packetBytes) ETV
attr interpolationmode none
attr source packetSent
attr title "packets sent, vector(packetBytes)"
vector 87 Scenario.node[0].lo[0].lo rcvdPkFromHl:vector(packetBytes) ETV
attr interpolationmode none
attr source packetReceivedFromUpper
attr title "packets received from higher layer, vector(packetBytes)"
vector 88 Scenario.node[0].lo[0].lo passedUpPk:vector(packetBytes) ETV
attr interpolationmode none
attr source packetSentToUpper
attr title "packets passed to higher layer, vector(packetBytes)"
vector 89 Scenario.node[0].wlan[0].mac packetReceivedFromUpper:vector(packetBytes) ETV
attr interpolationmode none
attr title "packets received from upper layer, vector(packetBytes)"
vector 90 Scenario.node[0].wlan[0].mac.dcf.channelAccess.pendingQueue packetPushed:vector(packetBytes) ETV
attr interpolationmode none
attr title "packet pushed, vector(packetBytes)"
vector 91 Scenario.node[0].wlan[0].mac.dcf.channelAccess.pendingQueue queueLength:vector ETV
attr autoWarmupFilter false
attr interpolationmode sample-hold
attr source "warmup(count(packetPushed) - count(packetPulled) - count(packetRemoved) - count(packetDropped))"
attr title "queue length, vector"
attr type int
vector 92 Scenario.node[0].wlan[0].mac.dcf.channelAccess.contention backoffPeriodGenerated:vector ETV
attr interpolationmode none
attr title "backoff periods, vector"
vector 93 Scenario.node[0].wlan[0].mac.dcf.channelAccess.contention backoffActive:vector ETV
attr autoWarmupFilter false
attr interpolationmode sample-hold
attr source warmup(count(backoffStarted)-count(backoffStopped))
attr title "backoff active, vector"
vector 94 Scenario.node[0].udp packetReceived:vector(packetBytes) ETV
attr interpolationmode none
attr source packetReceived
attr title "packets received, vector(packetBytes)"
vector 95 Scenario.node[0].udp passedUpPk:vector(count) ETV
attr interpolationmode none
attr source packetSentToUpper
attr title "packets passed up, vector(count)"
vector 96 Scenario.node[0].app[0] packetReceived:vector(packetBytes) ETV
attr interpolationmode none
attr source packetReceived
attr title "packets received, vector(packetBytes)"
vector 97 Scenario.node[0].app[0] throughput:vector ETV
attr source throughput(packetReceived)
attr title "throughput, vector"
attr unit bps
vector 98 Scenario.node[0].app[0] rcvdPkLifetime:vector ETV
attr interpolationmode none
attr source dataAge(packetReceived)
attr title "received packet lifetime, vector"
attr unit s
vector 99 Scenario.node[0].wlan[0].mac.dcf.channelAccess.pendingQueue packetPulled:vector(packetBytes) ETV
attr interpolationmode none
attr title "packet pulled, vector(packetBytes)"
vector 100 Scenario.node[0].wlan[0].mac.dcf.channelAccess.pendingQueue queueingTime:vector ETV
attr interpolationmode none
attr source queueingTime(packetPulled)
attr title "queueing times, vector"
attr unit s
vector 101 Scenario.node[0].wlan[0].mac.dcf.channelAccess.inProgressFrames queueLength:vector ETV
attr autoWarmupFilter false
attr interpolationmode sample-hold
attr source "warmup(count(packetEnqueued) - count(packetDequeued))"
attr title "queue length, vector"
vector 102 Scenario.node[0].wlan[0].mac.dcf datarateSelected:vector ETV
attr interpolationmode none
attr title "datarates selected, vector"
vector 103 Scenario.node[0].wlan[0].mac packetSentToLower:vector(packetBytes) ETV
attr interpolationmode none
attr title "packets sent to lower layer, vector(packetBytes)"
vector 104 Scenario.node[0].wlan[0].mac.dcf frameSequenceActive:vector ETV
attr autoWarmupFilter false
attr interpolationmode sample-hold
attr source warmup(count(frameSequenceStarted)-count(frameSequenceFinished))
attr title "frame sequence active, vector"
vector 105 Scenario.node[0].wlan[0].radio transmissionState:vector ETV
attr interpolationmode sample-hold
attr source transmissionStateChanged
attr title "Radio transmission state, vector"
vector 106 Scenario.node[0].wlan[0].mac.dcf packetSentToPeer:vector(packetBytes) ETV
attr interpolationmode none
attr title "packets sent, vector(packetBytes)"
vector 107 Scenario.node[0].wlan[0].mac.dcf packetSentToPeerMulticast:vector(packetBytes) ETV
attr interpolationmode none
attr source ieee80211Multicast(packetSentToPeer)
attr title "packets sent: multicast, vector(packetBytes)"
vector 108 Scenario.node[0].wlan[0].mac.dcf packetSentToPeerWithoutRetry:vector(packetBytes) ETV
attr interpolationmode none
attr source ieee80211NotRetry(packetSentToPeer)
attr title "packets sent: without retry, vector(packetBytes)"
vector 109 Scenario.node[0].wlan[0].mac.dcf.channelAccess.inProgressFrames queueingTime:vector ETV
attr interpolationmode none
attr source queueingTime(packetDequeued)
attr title "queueing times, vector"
vector 110 Scenario.node[1].wlan[0].mac packetReceivedFromLower:vector(packetBytes) ETV
attr interpolationmode none
attr title "packets received from lower layer, vector(packetBytes)"
vector 111 Scenario.node[1].wlan[0].mac.dcf packetReceivedFromPeer:vector(packetBytes) ETV
attr interpolationmode none
attr title "packets received, vector(packetBytes)"
vector 112 Scenario.node[1].wlan[0].mac.dcf packetReceivedFromPeerMulticast:vector(packetBytes) ETV
attr interpolationmode none
attr source ieee80211Multicast(packetReceivedFromPeer)
attr title "packets received: multicast, vector(packetBytes)"
vector 113 Scenario.node[1].wlan[0].mac.dcf packetReceivedFromPeerWithoutRetry:vector(packetBytes) ETV
attr interpolationmode none
attr source ieee80211NotRetry(packetReceivedFromPeer)
attr title "packets received: without retry, vector(packetBytes)"
vector 114 Scenario.node[1].wlan[0].mac packetSentToUpper:vector(packetBytes) ETV
attr interpolationmode none
attr title "packets sent to upper layer, vector(packetBytes)"
vector 115 Scenario.node[1].udp packetReceived:vector(packetBytes) ETV
attr interpolationmode none
attr source packetReceived
attr title "packets received, vector(packetBytes)"
vector 116 Scenario.node[1].udp passedUpPk:vector(count) ETV
attr interpolationmode none
attr source packetSentToUpper
attr title "packets passed up, vector(count)"
vector 117 Scenario.node[1].app[0] packetReceived:vector(packetBytes) ETV
attr interpolationmode none
attr source packetReceived
attr title "packets received, vector(packetBytes)"
vector 118 Scenario.node[1].app[0] throughput:vector ETV
attr source throughput(packetReceived)
attr title "throughput, vector"
attr unit bps
vector 119 Scenario.node[1].app[0] rcvdPkLifetime:vector ETV
attr interpolationmode none
attr source dataAge(packetReceived)
attr title "received packet lifetime, vector"
attr unit s
vector 120 Scenario.node[1].app[0] packetSent:vector(packetBytes) ETV
attr interpolationmode none
attr source packetSent
attr title "packets sent, vector(packetBytes)"
vector 121 Scenario.node[1].udp packetSent:vector(packetBytes) ETV
attr interpolationmode none
attr source packetSent
attr title "packets sent, vector(packetBytes)"
vector 122 Scenario.node[1].lo[0].lo rcvdPkFromHl:vector(packetBytes) ETV
attr interpolationmode none
attr source packetReceivedFromUpper
attr title "packets received from higher layer, vector(packetBytes)"
vector 123 Scenario.node[1].lo[0].lo passedUpPk:vector(packetBytes) ETV
attr interpolationmode none
attr source packetSentToUpper
attr title "packets passed to higher layer, vector(packetBytes)"
vector 124 Scenario.node[1].wlan[0].mac packetReceivedFromUpper:vector(packetBytes) ETV
attr interpolationmode none
attr title "packets received from upper layer, vector(packetBytes)"
vector 125 Scenario.node[1].wlan[0].mac.dcf.channelAccess.pendingQueue packetPushed:vector(packetBytes) ETV
attr interpolationmode none
attr title "packet pushed, vector(packetBytes)"
vector 126 Scenario.node[1].wlan[0].mac.dcf.channelAccess.pendingQueue queueLength:vector ETV
attr autoWarmupFilter false
attr interpolationmode sample-hold
attr source "warmup(count(packetPushed) - count(packetPulled) - count(packetRemoved) - count(packetDropped))"
attr title "queue length, vector"
attr type int
vector 127 Scenario.node[1].wlan[0].mac.dcf.channelAccess.contention backoffPeriodGenerated:vector ETV
attr interpolationmode none
attr title "backoff periods, vector"
vector 128 Scenario.node[1].wlan[0].mac.dcf.channelAccess.contention backoffActive:vector ETV
attr autoWarmupFilter false
attr interpolationmode sample-hold
attr source warmup(count(backoffStarted)-count(backoffStopped))
attr title "backoff active, vector"
vector 129 Scenario.node[15].wlan[0].mac packetReceivedFromLower:vector(packetBytes) ETV
attr interpolationmode none
attr title "packets received from lower layer, vector(packetBytes)"
vector 130 Scenario.node[15].wlan[0].mac.dcf packetReceivedFromPeer:vector(packetBytes) ETV
attr interpolationmode none
attr title "packets received, vector(packetBytes)"
vector 131 Scenario.node[15].wlan[0].mac.dcf packetReceivedFromPeerMulticast:vector(packetBytes) ETV
attr interpolationmode none
attr source ieee80211Multicast(packetReceivedFromPeer)
attr title "packets received: multicast, vector(packetBytes)"
vector 132 Scenario.node[15].wlan[0].mac.dcf packetReceivedFromPeerWithoutRetry:vector(packetBytes) ETV
attr interpolationmode none
attr source ieee80211NotRetry(packetReceivedFromPeer)
attr title "packets received: without retry, vector(packetBytes)"
vector 133 Scenario.node[15].wlan[0].mac packetSentToUpper:vector(packetBytes) ETV
attr interpolationmode none
attr title "packets sent to upper layer, vector(packetBytes)"
vector 134 Scenario.node[15].udp packetReceived:vector(packetBytes) ETV
attr interpolationmode none
attr source packetReceived
attr title "packets received, vector(packetBytes)"
vector 135 Scenario.node[15].udp passedUpPk:vector(count) ETV
attr interpolationmode none
attr source packetSentToUpper
attr title "packets passed up, vector(count)"
vector 136 Scenario.node[15].app[0] packetReceived:vector(packetBytes) ETV
attr interpolationmode none
attr source packetReceived
attr title "packets received, vector(packetBytes)"
vector 137 Scenario.node[15].app[0] throughput:vector ETV
attr source throughput(packetReceived)
attr title "throughput, vector"
attr unit bps
vector 138 Scenario.node[15].app[0] rcvdPkLifetime:vector ETV
attr interpolationmode none
attr source dataAge(packetReceived)
attr title "received packet lifetime, vector"
attr unit s
vector 139 Scenario.node[15].app[0] packetSent:vector(packetBytes) ETV
attr interpolationmode none
attr source packetSent
attr title "packets sent, vector(packetBytes)"
vector 140 Scenario.node[15].udp packetSent:vector(packetBytes) ETV
attr interpolationmode none
attr source packetSent
attr title "packets sent, vector(packetBytes)"
vector 141 Scenario.node[15].lo[0].lo rcvdPkFromHl:vector(packetBytes) ETV
attr interpolationmode none
attr source packetReceivedFromUpper
attr title "packets received from higher layer, vector(packetBytes)"
vector 142 Scenario.node[15].lo[0].lo passedUpPk:vector(packetBytes) ETV
attr interpolationmode none
attr source packetSentToUpper
attr title "packets passed to higher layer, vector(packetBytes)"
vector 143 Scenario.node[15].wlan[0].mac packetReceivedFromUpper:vector(packetBytes) ETV
attr interpolationmode none
attr title "packets received from upper layer, vector(packetBytes)"
vector 144 Scenario.node[15].wlan[0].mac.dcf.channelAccess.pendingQueue packetPushed:vector(packetBytes) ETV
attr interpolationmode none
attr title "packet pushed, vector(packetBytes)"
vector 145 Scenario.node[15].wlan[0].mac.dcf.channelAccess.pendingQueue queueLength:vector ETV
attr autoWarmupFilter false
attr interpolationmode sample-hold
attr source "warmup(count(packetPushed) - count(packetPulled) - count(packetRemoved) - count(packetDropped))"
attr title "queue length, vector"
attr type int
vector 146 Scenario.node[15].wlan[0].mac.dcf.channelAccess.contention backoffPeriodGenerated:vector ETV
attr interpolationmode none
attr title "backoff periods, vector"
vector 147 Scenario.node[15].wlan[0].mac.dcf.channelAccess.contention backoffActive:vector ETV
attr autoWarmupFilter false
attr interpolationmode sample-hold
attr source warmup(count(backoffStarted)-count(backoffStopped))